
     Program PWSCF v.6.2.2 starts on 30Nov2019 at  3:31:18 

     This program is part of the open-source Quantum ESPRESSO suite
     for quantum simulation of materials; please cite
         "P. Giannozzi et al., J. Phys.:Condens. Matter 21 395502 (2009);
         "P. Giannozzi et al., J. Phys.:Condens. Matter 29 465901 (2017);
          URL http://www.quantum-espresso.org", 
     in publications or presentations arising from this work. More details at
     http://www.quantum-espresso.org/quote

     Parallel version (MPI & OpenMP), running on     512 processor cores
     Number of MPI processes:               512
     Threads/MPI process:                     1

     MPI processes distributed on    32 nodes
     K-points division:     npool     =       2
     R & G space division:  proc/nbgrp/npool/nimage =     256
     Waiting for input...
     Reading input from standard input

     Current dimensions of program PWSCF are:
     Max number of different atomic species (ntypx) = 10
     Max number of k-points (npk) =  40000
     Max angular momentum in pseudopotentials (lmaxx) =  3

     IMPORTANT: XC functional enforced from input :
     Exchange-correlation      = PBE ( 1  4  3  4 0 0)
     Any further DFT definition will be discarded
     Please, verify this is what you really want


     Subspace diagonalization in iterative solution of the eigenvalue problem:
     one sub-group per band group will be used
     scalapack distributed-memory algorithm (size of sub-group: 11* 11 procs)

 
     Parallelization info
     --------------------
     sticks:   dense  smooth     PW     G-vecs:    dense   smooth      PW
     Min          96      96     24                13636    13636    1700
     Max          97      97     25                13649    13649    1710
     Sum       24691   24691   6175              3492331  3492331  436569
 


     bravais-lattice index     =            0
     lattice parameter (alat)  =      38.3082  a.u.
     unit-cell volume          =  102201.1572 (a.u.)^3
     number of atoms/cell      =         1438
     number of atomic types    =            2
     number of electrons       =      5752.00 (up:2877.00, down:2875.00)
     number of Kohn-Sham states=         2877
     kinetic-energy cutoff     =      40.0000  Ry
     charge density cutoff     =     160.0000  Ry
     convergence threshold     =      1.0E-08
     mixing beta               =       0.7000
     number of iterations used =            8  plain     mixing
     Exchange-correlation      = PBE ( 1  4  3  4 0 0)

     celldm(1)=  38.308213  celldm(2)=   0.000000  celldm(3)=   0.000000
     celldm(4)=   0.000000  celldm(5)=   0.000000  celldm(6)=   0.000000

     crystal axes: (cart. coord. in units of alat)
               a(1) = (   1.000000   0.000000   0.000000 )  
               a(2) = (   0.000000   1.322616   0.000000 )  
               a(3) = (   0.000000   0.000000   1.374506 )  

     reciprocal axes: (cart. coord. in units 2 pi/alat)
               b(1) = (  1.000000  0.000000  0.000000 )  
               b(2) = (  0.000000  0.756078  0.000000 )  
               b(3) = (  0.000000  0.000000  0.727534 )  


     PseudoPot. # 1 for C  read from file:
     /home/mahe/pseudo/C.pbe-tm-gipaw.UPF
     MD5 check sum: 6e4a9b9bc4429ee737bc22471ffa2923
     Pseudo is Norm-conserving, Zval =  4.0
     Generated by new atomic code, or converted to UPF format
     Using radial grid of 1073 points,  1 beta functions with: 
                l(1) =   0

     PseudoPot. # 2 for Si read from file:
     /home/mahe/pseudo/Si.pbe-tm-gipaw.UPF
     MD5 check sum: 744ed8b2dc623e0d56f5dfff7afbe95f
     Pseudo is Norm-conserving, Zval =  4.0
     Generated by new atomic code, or converted to UPF format
     Using radial grid of 1141 points,  2 beta functions with: 
                l(1) =   0
                l(2) =   1

     atomic species   valence    mass     pseudopotential
        C              4.00    12.01100     C ( 1.00)
        Si             4.00    28.08500     Si( 1.00)

     Starting magnetic structure 
     atomic species   magnetization
        C            0.000
        Si           0.000

     No symmetry found


                                    s                        frac. trans.

      isym =  1     identity                                     

 cryst.   s( 1) = (     1          0          0      )
                  (     0          1          0      )
                  (     0          0          1      )

 cart.    s( 1) = (  1.0000000  0.0000000  0.0000000 )
                  (  0.0000000  1.0000000  0.0000000 )
                  (  0.0000000  0.0000000  1.0000000 )


   Cartesian axes

     site n.     atom                  positions (alat units)
         1           C   tau(   1) = (   0.0937400   0.0000000   0.0000000  )
         2           C   tau(   2) = (   0.0938100   0.1322616   0.0763538  )
         3           C   tau(   3) = (   0.2191000   0.0881788   0.0000000  )
         4           C   tau(   4) = (   0.2191000   0.2204404   0.0763400  )
         5           C   tau(   5) = (   0.3437400   0.0000000   0.0000000  )
         6           C   tau(   6) = (   0.3438000   0.1322616   0.0763538  )
         7           C   tau(   7) = (   0.4691000   0.0440828   0.0763400  )
         8           C   tau(   8) = (   0.4691000   0.1763576   0.0000000  )
         9           C   tau(   9) = (   0.5937400   0.0000000   0.0000000  )
        10           C   tau(  10) = (   0.5938000   0.1322748   0.0763538  )
        11           C   tau(  11) = (   0.7191000   0.0881788   0.0000000  )
        12           C   tau(  12) = (   0.7191000   0.2204404   0.0763400  )
        13           C   tau(  13) = (   0.8437400   0.0000000   0.0000000  )
        14           C   tau(  14) = (   0.8438100   0.1322616   0.0763538  )
        15           C   tau(  15) = (   0.9691000   0.0440828   0.0763400  )
        16           C   tau(  16) = (   0.9691000   0.1763576   0.0000000  )
        17           C   tau(  17) = (   0.0937400   0.2645231   0.0000000  )
        18           C   tau(  18) = (   0.0938100   0.3967847   0.0763538  )
        19           C   tau(  19) = (   0.2191000   0.3527019   0.0000000  )
        20           C   tau(  20) = (   0.2191000   0.4849635   0.0763400  )
        21           C   tau(  21) = (   0.3437400   0.2645231   0.0000000  )
        22           C   tau(  22) = (   0.3438100   0.3967847   0.0763538  )
        23           C   tau(  23) = (   0.4691000   0.3086059   0.0763400  )
        24           C   tau(  24) = (   0.4691000   0.4408675   0.0000000  )
        25           C   tau(  25) = (   0.5937300   0.2645364   0.0000000  )
        26           C   tau(  26) = (   0.5938000   0.3967979   0.0763675  )
        27           C   tau(  27) = (   0.7191000   0.3527019   0.0000000  )
        28           C   tau(  28) = (   0.7191000   0.4849635   0.0763538  )
        29           C   tau(  29) = (   0.8437400   0.2645231   0.0000000  )
        30           C   tau(  30) = (   0.8438100   0.3967847   0.0763538  )
        31           C   tau(  31) = (   0.9691000   0.3086059   0.0763400  )
        32           C   tau(  32) = (   0.9691000   0.4408675   0.0000000  )
        33           C   tau(  33) = (   0.0937400   0.5290463   0.0000000  )
        34           C   tau(  34) = (   0.0938100   0.6613078   0.0763538  )
        35           C   tau(  35) = (   0.2191000   0.6172251   0.0000000  )
        36           C   tau(  36) = (   0.2191000   0.7494866   0.0763400  )
        37           C   tau(  37) = (   0.3437400   0.5290463   0.0000000  )
        38           C   tau(  38) = (   0.3438200   0.6613078   0.0763675  )
        39           C   tau(  39) = (   0.4691000   0.5731290   0.0763538  )
        40           C   tau(  40) = (   0.4691100   0.7053774   0.0000000  )
        41           C   tau(  41) = (   0.5937300   0.5290463   0.0000000  )
        42           C   tau(  42) = (   0.5938100   0.6612946   0.0764225  )
        43           C   tau(  43) = (   0.7191000   0.6172118   0.0000000  )
        44           C   tau(  44) = (   0.7191000   0.7494866   0.0763400  )
        45           C   tau(  45) = (   0.8437400   0.5290463   0.0000000  )
        46           C   tau(  46) = (   0.8438000   0.6613078   0.0763675  )
        47           C   tau(  47) = (   0.9691000   0.5731290   0.0763400  )
        48           C   tau(  48) = (   0.9691000   0.7053906   0.0000000  )
        49           C   tau(  49) = (   0.0937400   0.7935694   0.0000000  )
        50           C   tau(  50) = (   0.0938100   0.9258310   0.0763538  )
        51           C   tau(  51) = (   0.2191000   0.8817350   0.0000000  )
        52           C   tau(  52) = (   0.2191000   1.0140098   0.0763400  )
        53           C   tau(  53) = (   0.3437400   0.7935694   0.0000000  )
        54           C   tau(  54) = (   0.3438100   0.9258310   0.0763538  )
        55           C   tau(  55) = (   0.4691000   0.8376390   0.0763675  )
        56           C   tau(  56) = (   0.4691000   0.9699137   0.0000000  )
        57           C   tau(  57) = (   0.5937400   0.7935430   0.0000000  )
        58           C   tau(  58) = (   0.5938100   0.9258177   0.0763675  )
        59           C   tau(  59) = (   0.7191000   0.8817350   0.0000000  )
        60           C   tau(  60) = (   0.7191000   1.0140098   0.0763400  )
        61           C   tau(  61) = (   0.8437400   0.7935694   0.0000000  )
        62           C   tau(  62) = (   0.8438100   0.9258310   0.0763538  )
        63           C   tau(  63) = (   0.9691000   0.8376522   0.0763400  )
        64           C   tau(  64) = (   0.9691000   0.9699137   0.0000000  )
        65           C   tau(  65) = (   0.0937400   1.0580925   0.0000000  )
        66           C   tau(  66) = (   0.0938100   1.1903541   0.0763538  )
        67           C   tau(  67) = (   0.2191000   1.1462713   0.0000000  )
        68           C   tau(  68) = (   0.2191000   1.2785329   0.0763400  )
        69           C   tau(  69) = (   0.3437400   1.0580925   0.0000000  )
        70           C   tau(  70) = (   0.3438000   1.1903541   0.0763538  )
        71           C   tau(  71) = (   0.4691000   1.1021753   0.0763538  )
        72           C   tau(  72) = (   0.4691000   1.2344501   0.0000000  )
        73           C   tau(  73) = (   0.5937400   1.0580925   0.0000000  )
        74           C   tau(  74) = (   0.5938100   1.1903541   0.0763538  )
        75           C   tau(  75) = (   0.7191000   1.1462713   0.0000000  )
        76           C   tau(  76) = (   0.7191000   1.2785329   0.0763400  )
        77           C   tau(  77) = (   0.8437400   1.0580925   0.0000000  )
        78           C   tau(  78) = (   0.8438100   1.1903541   0.0763538  )
        79           C   tau(  79) = (   0.9691000   1.1021753   0.0763400  )
        80           C   tau(  80) = (   0.9691000   1.2344501   0.0000000  )
        81           C   tau(  81) = (   0.0938100   0.0000000   0.1527351  )
        82           C   tau(  82) = (   0.0937400   0.1322616   0.2290888  )
        83           C   tau(  83) = (   0.2191000   0.0881788   0.1527488  )
        84           C   tau(  84) = (   0.2191000   0.2204404   0.2290888  )
        85           C   tau(  85) = (   0.3438000   0.0000000   0.1527351  )
        86           C   tau(  86) = (   0.3437400   0.1322748   0.2290888  )
        87           C   tau(  87) = (   0.4691000   0.0440960   0.2290888  )
        88           C   tau(  88) = (   0.4691000   0.1763576   0.1527351  )
        89           C   tau(  89) = (   0.5938000   0.0000000   0.1527351  )
        90           C   tau(  90) = (   0.5937300   0.1322880   0.2290888  )
        91           C   tau(  91) = (   0.7191000   0.0881920   0.1527488  )
        92           C   tau(  92) = (   0.7191000   0.2204536   0.2290888  )
        93           C   tau(  93) = (   0.8438100   0.0000132   0.1527351  )
        94           C   tau(  94) = (   0.8437400   0.1322748   0.2290751  )
        95           C   tau(  95) = (   0.9691000   0.0440960   0.2290751  )
        96           C   tau(  96) = (   0.9691000   0.1763443   0.1527351  )
        97           C   tau(  97) = (   0.0938100   0.2645231   0.1527351  )
        98           C   tau(  98) = (   0.0937400   0.3967847   0.2290888  )
        99           C   tau(  99) = (   0.2191000   0.3527019   0.1527488  )
       100           C   tau( 100) = (   0.2191000   0.4849635   0.2290888  )
       101           C   tau( 101) = (   0.3438000   0.2645231   0.1527351  )
       102           C   tau( 102) = (   0.3437400   0.3967847   0.2290888  )
       103           C   tau( 103) = (   0.4691000   0.3086191   0.2290888  )
       104           C   tau( 104) = (   0.4691000   0.4408675   0.1527488  )
       105           C   tau( 105) = (   0.5938000   0.2645364   0.1527351  )
       106           C   tau( 106) = (   0.5937300   0.3968112   0.2291163  )
       107           C   tau( 107) = (   0.7191000   0.3527151   0.1527488  )
       108           C   tau( 108) = (   0.7191000   0.4849767   0.2291438  )
       109           C   tau( 109) = (   0.8438100   0.2645231   0.1527351  )
       110           C   tau( 110) = (   0.8437400   0.3967847   0.2290888  )
       111           C   tau( 111) = (   0.9691000   0.3086059   0.2290888  )
       112           C   tau( 112) = (   0.9691000   0.4408675   0.1527351  )
       113           C   tau( 113) = (   0.0938100   0.5290463   0.1527351  )
       114           C   tau( 114) = (   0.0937300   0.6613078   0.2291026  )
       115           C   tau( 115) = (   0.2191100   0.6172251   0.1527488  )
       116           C   tau( 116) = (   0.2191100   0.7494866   0.2290888  )
       117           C   tau( 117) = (   0.3438100   0.5290463   0.1527351  )
       118           C   tau( 118) = (   0.3437600   0.6613078   0.2291438  )
       119           C   tau( 119) = (   0.4691100   0.5731290   0.2291163  )
       120           C   tau( 120) = (   0.4691300   0.7053774   0.1528175  )
       121           C   tau( 121) = (   0.5938000   0.5290463   0.1527900  )
       122           C   tau( 122) = (   0.5937600   0.6612814   0.2293775  )
       123           C   tau( 123) = (   0.7190900   0.6172251   0.1528038  )
       124           C   tau( 124) = (   0.7191100   0.7494734   0.2290613  )
       125           C   tau( 125) = (   0.8438000   0.5290463   0.1527488  )
       126           C   tau( 126) = (   0.8437200   0.6612946   0.2291301  )
       127           C   tau( 127) = (   0.9691000   0.5731290   0.2290888  )
       128           C   tau( 128) = (   0.9690900   0.7053774   0.1527625  )
       129           C   tau( 129) = (   0.0938100   0.7935562   0.1527351  )
       130           C   tau( 130) = (   0.0937400   0.9258310   0.2290888  )
       131           C   tau( 131) = (   0.2191000   0.8817482   0.1527351  )
       132           C   tau( 132) = (   0.2191000   1.0139965   0.2290888  )
       133           C   tau( 133) = (   0.3438200   0.7935694   0.1527488  )
       134           C   tau( 134) = (   0.3437500   0.9258310   0.2291026  )
       135           C   tau( 135) = (   0.4691200   0.8376257   0.2291438  )
       136           C   tau( 136) = (   0.4691100   0.9699005   0.1527763  )
       137           C   tau( 137) = (   0.5938100   0.7935297   0.1527213  )
       138           C   tau( 138) = (   0.5937500   0.9257913   0.2291301  )
       139           C   tau( 139) = (   0.7191000   0.8817482   0.1527488  )
       140           C   tau( 140) = (   0.7191000   1.0139965   0.2290888  )
       141           C   tau( 141) = (   0.8438100   0.7935694   0.1527213  )
       142           C   tau( 142) = (   0.8437300   0.9258310   0.2290751  )
       143           C   tau( 143) = (   0.9691000   0.8376522   0.2290751  )
       144           C   tau( 144) = (   0.9691000   0.9699137   0.1527351  )
       145           C   tau( 145) = (   0.0938000   1.0580925   0.1527351  )
       146           C   tau( 146) = (   0.0937400   1.1903541   0.2290888  )
       147           C   tau( 147) = (   0.2191000   1.1462713   0.1527351  )
       148           C   tau( 148) = (   0.2191000   1.2785329   0.2290888  )
       149           C   tau( 149) = (   0.3438100   1.0580925   0.1527351  )
       150           C   tau( 150) = (   0.3437400   1.1903541   0.2290888  )
       151           C   tau( 151) = (   0.4691100   1.1021621   0.2291026  )
       152           C   tau( 152) = (   0.4691000   1.2344369   0.1527488  )
       153           C   tau( 153) = (   0.5938100   1.0580793   0.1527488  )
       154           C   tau( 154) = (   0.5937400   1.1903541   0.2290888  )
       155           C   tau( 155) = (   0.7191000   1.1462713   0.1527351  )
       156           C   tau( 156) = (   0.7191000   1.2785329   0.2290888  )
       157           C   tau( 157) = (   0.8438000   1.0580925   0.1527351  )
       158           C   tau( 158) = (   0.8437300   1.1903673   0.2290751  )
       159           C   tau( 159) = (   0.9691000   1.1021885   0.2290751  )
       160           C   tau( 160) = (   0.9691000   1.2344369   0.1527351  )
       161           C   tau( 161) = (   0.0938100   0.0000000   0.3054426  )
       162           C   tau( 162) = (   0.0938100   0.1322616   0.3818239  )
       163           C   tau( 163) = (   0.2191000   0.0881788   0.3054289  )
       164           C   tau( 164) = (   0.2191000   0.2204536   0.3818239  )
       165           C   tau( 165) = (   0.3438100   0.0000000   0.3054426  )
       166           C   tau( 166) = (   0.3438100   0.1322748   0.3818239  )
       167           C   tau( 167) = (   0.4691000   0.0440960   0.3818239  )
       168           C   tau( 168) = (   0.4691000   0.1763576   0.3054289  )
       169           C   tau( 169) = (   0.5938000   0.0000397   0.3054289  )
       170           C   tau( 170) = (   0.5938100   0.1322880   0.3818239  )
       171           C   tau( 171) = (   0.7191000   0.0882052   0.3054289  )
       172           C   tau( 172) = (   0.7191000   0.2204668   0.3818376  )
       173           C   tau( 173) = (   0.8438100   0.0000132   0.3054289  )
       174           C   tau( 174) = (   0.8438000   0.1322748   0.3818101  )
       175           C   tau( 175) = (   0.9691000   0.0440960   0.3818239  )
       176           C   tau( 176) = (   0.9691000   0.1763443   0.3054289  )
       177           C   tau( 177) = (   0.0938100   0.2645231   0.3054426  )
       178           C   tau( 178) = (   0.0938100   0.3967979   0.3818239  )
       179           C   tau( 179) = (   0.2191000   0.3527151   0.3054289  )
       180           C   tau( 180) = (   0.2191000   0.4849767   0.3818514  )
       181           C   tau( 181) = (   0.3438000   0.2645364   0.3054426  )
       182           C   tau( 182) = (   0.3438000   0.3967979   0.3818239  )
       183           C   tau( 183) = (   0.4691000   0.3086191   0.3818239  )
       184           C   tau( 184) = (   0.4691000   0.4408807   0.3054426  )
       185           C   tau( 185) = (   0.5938100   0.2645628   0.3054564  )
       186           C   tau( 186) = (   0.5938000   0.3968376   0.3818789  )
       187           C   tau( 187) = (   0.7191000   0.3527416   0.3054701  )
       188           C   tau( 188) = (   0.7191000   0.4850296   0.3819613  )
       189           C   tau( 189) = (   0.8438000   0.2645364   0.3054426  )
       190           C   tau( 190) = (   0.8438100   0.3968112   0.3818239  )
       191           C   tau( 191) = (   0.9691000   0.3086059   0.3818239  )
       192           C   tau( 192) = (   0.9691000   0.4408675   0.3054289  )
       193           C   tau( 193) = (   0.0938100   0.5290463   0.3054426  )
       194           C   tau( 194) = (   0.0937900   0.6612946   0.3818651  )
       195           C   tau( 195) = (   0.2191100   0.6172383   0.3054701  )
       196           C   tau( 196) = (   0.2190800   0.7494734   0.3818101  )
       197           C   tau( 197) = (   0.3438100   0.5290463   0.3054564  )
       198           C   tau( 198) = (   0.3438600   0.6613211   0.3819064  )
       199           C   tau( 199) = (   0.4691100   0.5731158   0.3818926  )
       200           C   tau( 200) = (   0.4691600   0.7053642   0.3056076  )
       201           C   tau( 201) = (   0.5937900   0.5290463   0.3055663  )
       202           C   tau( 202) = (   0.5938100   0.6612417   0.3825249  )
       203           C   tau( 203) = (   0.7190900   0.6172251   0.3055938  )
       204           C   tau( 204) = (   0.7191600   0.7494866   0.3817414  )
       205           C   tau( 205) = (   0.8438000   0.5290463   0.3054701  )
       206           C   tau( 206) = (   0.8437400   0.6612814   0.3819201  )
       207           C   tau( 207) = (   0.9690800   0.5731158   0.3818514  )
       208           C   tau( 208) = (   0.9690800   0.7053774   0.3054701  )
       209           C   tau( 209) = (   0.0938000   0.7935562   0.3054289  )
       210           C   tau( 210) = (   0.0938000   0.9258177   0.3818101  )
       211           C   tau( 211) = (   0.2191100   0.8817350   0.3054289  )
       212           C   tau( 212) = (   0.2191100   1.0139965   0.3818376  )
       213           C   tau( 213) = (   0.3438400   0.7935694   0.3054701  )
       214           C   tau( 214) = (   0.3438300   0.9257913   0.3818651  )
       215           C   tau( 215) = (   0.4691500   0.8375464   0.3819476  )
       216           C   tau( 216) = (   0.4691300   0.9698476   0.3055113  )
       217           C   tau( 217) = (   0.5938400   0.7934900   0.3053601  )
       218           C   tau( 218) = (   0.5938400   0.9257384   0.3818926  )
       219           C   tau( 219) = (   0.7191000   0.8817350   0.3054426  )
       220           C   tau( 220) = (   0.7191000   1.0140098   0.3818376  )
       221           C   tau( 221) = (   0.8438200   0.7935694   0.3054014  )
       222           C   tau( 222) = (   0.8438000   0.9258442   0.3818101  )
       223           C   tau( 223) = (   0.9691000   0.8376390   0.3818101  )
       224           C   tau( 224) = (   0.9690900   0.9699137   0.3054151  )
       225           C   tau( 225) = (   0.0938100   1.0580925   0.3054426  )
       226           C   tau( 226) = (   0.0938100   1.1903541   0.3818239  )
       227           C   tau( 227) = (   0.2191000   1.1462713   0.3054289  )
       228           C   tau( 228) = (   0.2191000   1.2785329   0.3818239  )
       229           C   tau( 229) = (   0.3438100   1.0580793   0.3054426  )
       230           C   tau( 230) = (   0.3438100   1.1903409   0.3818239  )
       231           C   tau( 231) = (   0.4691000   1.1021489   0.3818514  )
       232           C   tau( 232) = (   0.4691000   1.2344369   0.3054289  )
       233           C   tau( 233) = (   0.5938100   1.0580529   0.3054564  )
       234           C   tau( 234) = (   0.5938000   1.1904467   0.3817689  )
       235           C   tau( 235) = (   0.7191000   1.1462713   0.3054289  )
       236           C   tau( 236) = (   0.7191000   1.2785593   0.3818101  )
       237           C   tau( 237) = (   0.8438000   1.0580925   0.3054289  )
       238           C   tau( 238) = (   0.8438100   1.1903806   0.3817964  )
       239           C   tau( 239) = (   0.9691000   1.1021885   0.3818101  )
       240           C   tau( 240) = (   0.9691000   1.2344501   0.3054151  )
       241           C   tau( 241) = (   0.0937400   0.0000132   0.4581639  )
       242           C   tau( 242) = (   0.0938100   0.1322616   0.5345177  )
       243           C   tau( 243) = (   0.2191000   0.0881788   0.4581639  )
       244           C   tau( 244) = (   0.2191000   0.2204404   0.5345177  )
       245           C   tau( 245) = (   0.3437400   0.0000000   0.4581639  )
       246           C   tau( 246) = (   0.3438100   0.1322616   0.5345177  )
       247           C   tau( 247) = (   0.4691000   0.0440960   0.5345040  )
       248           C   tau( 248) = (   0.4691000   0.1763443   0.4581639  )
       249           C   tau( 249) = (   0.5937400   0.0000397   0.4581502  )
       250           C   tau( 250) = (   0.5938000   0.1322616   0.5345040  )
       251           C   tau( 251) = (   0.7191000   0.0881920   0.4581639  )
       252           C   tau( 252) = (   0.7191000   0.2204404   0.5345040  )
       253           C   tau( 253) = (   0.8437400   0.0000132   0.4581639  )
       254           C   tau( 254) = (   0.8438100   0.1322748   0.5345177  )
       255           C   tau( 255) = (   0.9691000   0.0440960   0.5345177  )
       256           C   tau( 256) = (   0.9691000   0.1763576   0.4581639  )
       257           C   tau( 257) = (   0.0937300   0.2645231   0.4581777  )
       258           C   tau( 258) = (   0.0937900   0.3967979   0.5345314  )
       259           C   tau( 259) = (   0.2190800   0.3527019   0.4581639  )
       260           C   tau( 260) = (   0.2191300   0.4849635   0.5345177  )
       261           C   tau( 261) = (   0.3437300   0.2645231   0.4581639  )
       262           C   tau( 262) = (   0.3437600   0.3967450   0.5344765  )
       263           C   tau( 263) = (   0.4690800   0.3085133   0.5344902  )
       264           C   tau( 264) = (   0.4690900   0.4408410   0.4581777  )
       265           C   tau( 265) = (   0.5937400   0.2645496   0.4581914  )
       266           C   tau( 266) = (   0.5937700   0.3967318   0.5346139  )
       267           C   tau( 267) = (   0.7191000   0.3527416   0.4581914  )
       268           C   tau( 268) = (   0.7189900   0.4850164   0.5346689  )
       269           C   tau( 269) = (   0.8437400   0.2645496   0.4581777  )
       270           C   tau( 270) = (   0.8437700   0.3968112   0.5345177  )
       271           C   tau( 271) = (   0.9690900   0.3086191   0.5345177  )
       272           C   tau( 272) = (   0.9690900   0.4408939   0.4581639  )
       273           C   tau( 273) = (   0.0937400   0.5290859   0.4582052  )
       274           C   tau( 274) = (   0.0937600   0.6613078   0.5345452  )
       275           C   tau( 275) = (   0.2192200   0.6172647   0.4582601  )
       276           C   tau( 276) = (   0.2191700   0.7494602   0.5345452  )
       277           C   tau( 277) = (   0.3437500   0.5290463   0.4581777  )
       278           C   tau( 278) = (   0.3442200   0.6613343   0.5347376  )
       279           C   tau( 279) = (   0.4691100   0.5729703   0.5346002  )
       280           C   tau( 280) = (   0.4692100   0.7053245   0.4584526  )
       281           C   tau( 281) = (   0.5936800   0.5290595   0.4584663  )
       282           C   tau( 282) = (   0.5935200   0.6614930   0.5365107  )
       283           C   tau( 283) = (   0.7190100   0.6172647   0.4585075  )
       284           C   tau( 284) = (   0.7191400   0.7496850   0.5343802  )
       285           C   tau( 285) = (   0.8437000   0.5290727   0.4582464  )
       286           C   tau( 286) = (   0.8433200   0.6612285   0.5348476  )
       287           C   tau( 287) = (   0.9689500   0.5731423   0.5345727  )
       288           C   tau( 288) = (   0.9689300   0.7053509   0.4582739  )
       289           C   tau( 289) = (   0.0937500   0.7935165   0.4581639  )
       290           C   tau( 290) = (   0.0938700   0.9258310   0.5345314  )
       291           C   tau( 291) = (   0.2191000   0.8817217   0.4581639  )
       292           C   tau( 292) = (   0.2190900   1.0139965   0.5345177  )
       293           C   tau( 293) = (   0.3436800   0.7935033   0.4581639  )
       294           C   tau( 294) = (   0.3437300   0.9258045   0.5345727  )
       295           C   tau( 295) = (   0.4687700   0.8374935   0.5346139  )
       296           C   tau( 296) = (   0.4691200   0.9698608   0.4582464  )
       297           C   tau( 297) = (   0.5939500   0.7931726   0.4579577  )
       298           C   tau( 298) = (   0.5939900   0.9264791   0.5344490  )
       299           C   tau( 299) = (   0.7191300   0.8817746   0.4582052  )
       300           C   tau( 300) = (   0.7191600   1.0142346   0.5344352  )
       301           C   tau( 301) = (   0.8437300   0.7936223   0.4580814  )
       302           C   tau( 302) = (   0.8438900   0.9259765   0.5343940  )
       303           C   tau( 303) = (   0.9692400   0.8377315   0.5343802  )
       304           C   tau( 304) = (   0.9691300   0.9699534   0.4581364  )
       305           C   tau( 305) = (   0.0937400   1.0580925   0.4581639  )
       306           C   tau( 306) = (   0.0938100   1.1903541   0.5345177  )
       307           C   tau( 307) = (   0.2191100   1.1462581   0.4581777  )
       308           C   tau( 308) = (   0.2191000   1.2785329   0.5345177  )
       309           C   tau( 309) = (   0.3437500   1.0580396   0.4581914  )
       310           C   tau( 310) = (   0.3438100   1.1903409   0.5345177  )
       311           C   tau( 311) = (   0.4691100   1.1021753   0.5345177  )
       312           C   tau( 312) = (   0.4691000   1.2344501   0.4581639  )
       313           C   tau( 313) = (   0.5937500   1.0583703   0.4580265  )
       314           C   tau( 314) = (   0.5938200   1.1904335   0.5344902  )
       315           C   tau( 315) = (   0.7191100   1.1463507   0.4581364  )
       316           C   tau( 316) = (   0.7191000   1.2785593   0.5345040  )
       317           C   tau( 317) = (   0.8437600   1.0581587   0.4581227  )
       318           C   tau( 318) = (   0.8438100   1.1903673   0.5345177  )
       319           C   tau( 319) = (   0.9691000   1.1021753   0.5345040  )
       320           C   tau( 320) = (   0.9691000   1.2344501   0.4581639  )
       321           C   tau( 321) = (   0.0938000   0.0000000   0.6108990  )
       322           C   tau( 322) = (   0.0937400   0.1322748   0.6872528  )
       323           C   tau( 323) = (   0.2191000   0.0881788   0.6109127  )
       324           C   tau( 324) = (   0.2191000   0.2204404   0.6872528  )
       325           C   tau( 325) = (   0.3438100   0.0000000   0.6108990  )
       326           C   tau( 326) = (   0.3437400   0.1322616   0.6872528  )
       327           C   tau( 327) = (   0.4691000   0.0440960   0.6872528  )
       328           C   tau( 328) = (   0.4690900   0.1763179   0.6108990  )
       329           C   tau( 329) = (   0.5938100   0.0000265   0.6108990  )
       330           C   tau( 330) = (   0.5937300   0.1322483   0.6872528  )
       331           C   tau( 331) = (   0.7191000   0.0881920   0.6108990  )
       332           C   tau( 332) = (   0.7191100   0.2204271   0.6872528  )
       333           C   tau( 333) = (   0.8438100   0.0000132   0.6108990  )
       334           C   tau( 334) = (   0.8437400   0.1322748   0.6872528  )
       335           C   tau( 335) = (   0.9691000   0.0440960   0.6872528  )
       336           C   tau( 336) = (   0.9691000   0.1763576   0.6109127  )
       337           C   tau( 337) = (   0.0938000   0.2645364   0.6108990  )
       338           C   tau( 338) = (   0.0936900   0.3968112   0.6872528  )
       339           C   tau( 339) = (   0.2190700   0.3527019   0.6109127  )
       340           C   tau( 340) = (   0.2191100   0.4849503   0.6872528  )
       341           C   tau( 341) = (   0.3437900   0.2645099   0.6108852  )
       342           C   tau( 342) = (   0.3436700   0.3966921   0.6872528  )
       343           C   tau( 343) = (   0.4690300   0.3084207   0.6872528  )
       344           C   tau( 344) = (   0.4689300   0.4404442   0.6108990  )
       345           C   tau( 345) = (   0.5937900   0.2644041   0.6108715  )
       346           C   tau( 346) = (   0.5936100   0.3962292   0.6872528  )
       347           C   tau( 347) = (   0.7190900   0.3526226   0.6108990  )
       348           C   tau( 348) = (   0.7187700   0.4845799   0.6872528  )
       349           C   tau( 349) = (   0.8438200   0.2645231   0.6108990  )
       350           C   tau( 350) = (   0.8436800   0.3967847   0.6872528  )
       351           C   tau( 351) = (   0.9691000   0.3086324   0.6872528  )
       352           C   tau( 352) = (   0.9689800   0.4409204   0.6108990  )
       353           C   tau( 353) = (   0.0938200   0.5290595   0.6108852  )
       354           C   tau( 354) = (   0.0936900   0.6612946   0.6872528  )
       355           C   tau( 355) = (   0.2191800   0.6172251   0.6109265  )
       356           C   tau( 356) = (   0.2191800   0.7494205   0.6872528  )
       357           C   tau( 357) = (   0.3439100   0.5289669   0.6108852  )
       358           C   tau( 358) = (   0.3439100   0.6610962   0.6872528  )
       359           C   tau( 359) = (   0.4694400   0.5722429   0.6872528  )
       360           C   tau( 360) = (   0.4708200   0.7049938   0.6115038  )
       361           C   tau( 361) = (   0.5932500   0.5284114   0.6114213  )
       362           C   tau( 362) = (   0.7178300   0.6173838   0.6118336  )
       363           C   tau( 363) = (   0.7255000   0.7499495   0.6872528  )
       364           C   tau( 364) = (   0.8434300   0.5291521   0.6109677  )
       365           C   tau( 365) = (   0.8437900   0.6609243   0.6872528  )
       366           C   tau( 366) = (   0.9691200   0.5730100   0.6872528  )
       367           C   tau( 367) = (   0.9689500   0.7053906   0.6109265  )
       368           C   tau( 368) = (   0.0937600   0.7935297   0.6109127  )
       369           C   tau( 369) = (   0.0937600   0.9257781   0.6872528  )
       370           C   tau( 370) = (   0.2192100   0.8816292   0.6109265  )
       371           C   tau( 371) = (   0.2191000   1.0139569   0.6872528  )
       372           C   tau( 372) = (   0.3441800   0.7933578   0.6109814  )
       373           C   tau( 373) = (   0.3437400   0.9257781   0.6872528  )
       374           C   tau( 374) = (   0.4691200   0.8377448   0.6872528  )
       375           C   tau( 375) = (   0.4691400   0.9699005   0.6109402  )
       376           C   tau( 376) = (   0.5922500   0.7972992   0.6058958  )
       377           C   tau( 377) = (   0.5939500   0.9265055   0.6872528  )
       378           C   tau( 378) = (   0.7193300   0.8822905   0.6108302  )
       379           C   tau( 379) = (   0.7191900   1.0142346   0.6872528  )
       380           C   tau( 380) = (   0.8439500   0.7939133   0.6105004  )
       381           C   tau( 381) = (   0.8438400   0.9259765   0.6872528  )
       382           C   tau( 382) = (   0.9690600   0.8376654   0.6872528  )
       383           C   tau( 383) = (   0.9691400   0.9699137   0.6108852  )
       384           C   tau( 384) = (   0.0938100   1.0580793   0.6109127  )
       385           C   tau( 385) = (   0.0937400   1.1903541   0.6872528  )
       386           C   tau( 386) = (   0.2191000   1.1462581   0.6109127  )
       387           C   tau( 387) = (   0.2191000   1.2785329   0.6872528  )
       388           C   tau( 388) = (   0.3438200   1.0580661   0.6109127  )
       389           C   tau( 389) = (   0.3437400   1.1903409   0.6872528  )
       390           C   tau( 390) = (   0.4691200   1.1021753   0.6872528  )
       391           C   tau( 391) = (   0.4691100   1.2344369   0.6109127  )
       392           C   tau( 392) = (   0.5938600   1.0583571   0.6108715  )
       393           C   tau( 393) = (   0.5937500   1.1904599   0.6872528  )
       394           C   tau( 394) = (   0.7191200   1.1463507   0.6108990  )
       395           C   tau( 395) = (   0.7191000   1.2785593   0.6872528  )
       396           C   tau( 396) = (   0.8438500   1.0581322   0.6108852  )
       397           C   tau( 397) = (   0.8437400   1.1903673   0.6872528  )
       398           C   tau( 398) = (   0.9691000   1.1021753   0.6872528  )
       399           C   tau( 399) = (   0.9691000   1.2344501   0.6109127  )
       400           C   tau( 400) = (   0.0938000   0.0000000   0.7636065  )
       401           C   tau( 401) = (   0.0938100   0.1322616   0.8399878  )
       402           C   tau( 402) = (   0.2191000   0.0881788   0.7635928  )
       403           C   tau( 403) = (   0.2191000   0.2204404   0.8399878  )
       404           C   tau( 404) = (   0.3438100   0.0000000   0.7636065  )
       405           C   tau( 405) = (   0.3438100   0.1322616   0.8399878  )
       406           C   tau( 406) = (   0.4691000   0.0440960   0.8400015  )
       407           C   tau( 407) = (   0.4690900   0.1763179   0.7636065  )
       408           C   tau( 408) = (   0.5938100   0.0000265   0.7636065  )
       409           C   tau( 409) = (   0.5938000   0.1322616   0.8400015  )
       410           C   tau( 410) = (   0.7191000   0.0881920   0.7636065  )
       411           C   tau( 411) = (   0.7191000   0.2204404   0.8400015  )
       412           C   tau( 412) = (   0.8438100   0.0000132   0.7636065  )
       413           C   tau( 413) = (   0.8438100   0.1322748   0.8399878  )
       414           C   tau( 414) = (   0.9691000   0.0440960   0.8399878  )
       415           C   tau( 415) = (   0.9691000   0.1763576   0.7635928  )
       416           C   tau( 416) = (   0.0938000   0.2645364   0.7636065  )
       417           C   tau( 417) = (   0.0937900   0.3967979   0.8399741  )
       418           C   tau( 418) = (   0.2190700   0.3527019   0.7635928  )
       419           C   tau( 419) = (   0.2191300   0.4849635   0.8399878  )
       420           C   tau( 420) = (   0.3437900   0.2645099   0.7636203  )
       421           C   tau( 421) = (   0.3437600   0.3967450   0.8400290  )
       422           C   tau( 422) = (   0.4690800   0.3085133   0.8400153  )
       423           C   tau( 423) = (   0.4689300   0.4404442   0.7636065  )
       424           C   tau( 424) = (   0.5937900   0.2644041   0.7636340  )
       425           C   tau( 425) = (   0.5937700   0.3967318   0.8398916  )
       426           C   tau( 426) = (   0.7190900   0.3526226   0.7636065  )
       427           C   tau( 427) = (   0.7189900   0.4850164   0.8398366  )
       428           C   tau( 428) = (   0.8438200   0.2645231   0.7636065  )
       429           C   tau( 429) = (   0.8437700   0.3968112   0.8399878  )
       430           C   tau( 430) = (   0.9690900   0.3086191   0.8399878  )
       431           C   tau( 431) = (   0.9689800   0.4409204   0.7636065  )
       432           C   tau( 432) = (   0.0938200   0.5290595   0.7636203  )
       433           C   tau( 433) = (   0.0937600   0.6613078   0.8399603  )
       434           C   tau( 434) = (   0.2191800   0.6172251   0.7635790  )
       435           C   tau( 435) = (   0.2191700   0.7494602   0.8399603  )
       436           C   tau( 436) = (   0.3439100   0.5289669   0.7636203  )
       437           C   tau( 437) = (   0.3442200   0.6613343   0.8397679  )
       438           C   tau( 438) = (   0.4691100   0.5729703   0.8399053  )
       439           C   tau( 439) = (   0.4708200   0.7049938   0.7630017  )
       440           C   tau( 440) = (   0.5932500   0.5284114   0.7630842  )
       441           C   tau( 441) = (   0.5935200   0.6614930   0.8379948  )
       442           C   tau( 442) = (   0.7178300   0.6173838   0.7626719  )
       443           C   tau( 443) = (   0.7191400   0.7496850   0.8401253  )
       444           C   tau( 444) = (   0.8434300   0.5291521   0.7635378  )
       445           C   tau( 445) = (   0.8433200   0.6612285   0.8396579  )
       446           C   tau( 446) = (   0.9689500   0.5731423   0.8399328  )
       447           C   tau( 447) = (   0.9689500   0.7053906   0.7635790  )
       448           C   tau( 448) = (   0.0937600   0.7935297   0.7635928  )
       449           C   tau( 449) = (   0.0938700   0.9258310   0.8399741  )
       450           C   tau( 450) = (   0.2192100   0.8816292   0.7635790  )
       451           C   tau( 451) = (   0.2190900   1.0139965   0.8399878  )
       452           C   tau( 452) = (   0.3441800   0.7933578   0.7635241  )
       453           C   tau( 453) = (   0.3437300   0.9258045   0.8399328  )
       454           C   tau( 454) = (   0.4687700   0.8374935   0.8398916  )
       455           C   tau( 455) = (   0.4691400   0.9699005   0.7635653  )
       456           C   tau( 456) = (   0.5922500   0.7972992   0.7686097  )
       457           C   tau( 457) = (   0.5939900   0.9264791   0.8400565  )
       458           C   tau( 458) = (   0.7193300   0.8822905   0.7636753  )
       459           C   tau( 459) = (   0.7191600   1.0142346   0.8400703  )
       460           C   tau( 460) = (   0.8439500   0.7939133   0.7640051  )
       461           C   tau( 461) = (   0.8438900   0.9259765   0.8401115  )
       462           C   tau( 462) = (   0.9692400   0.8377315   0.8401253  )
       463           C   tau( 463) = (   0.9691400   0.9699137   0.7636203  )
       464           C   tau( 464) = (   0.0938100   1.0580793   0.7635928  )
       465           C   tau( 465) = (   0.0938100   1.1903541   0.8399878  )
       466           C   tau( 466) = (   0.2191000   1.1462581   0.7635928  )
       467           C   tau( 467) = (   0.2191000   1.2785329   0.8399878  )
       468           C   tau( 468) = (   0.3438200   1.0580661   0.7635928  )
       469           C   tau( 469) = (   0.3438100   1.1903409   0.8399878  )
       470           C   tau( 470) = (   0.4691100   1.1021753   0.8399878  )
       471           C   tau( 471) = (   0.4691100   1.2344369   0.7635928  )
       472           C   tau( 472) = (   0.5938600   1.0583571   0.7636340  )
       473           C   tau( 473) = (   0.5938200   1.1904335   0.8400153  )
       474           C   tau( 474) = (   0.7191200   1.1463507   0.7636065  )
       475           C   tau( 475) = (   0.7191000   1.2785593   0.8400015  )
       476           C   tau( 476) = (   0.8438500   1.0581322   0.7636203  )
       477           C   tau( 477) = (   0.8438100   1.1903673   0.8399878  )
       478           C   tau( 478) = (   0.9691000   1.1021753   0.8400015  )
       479           C   tau( 479) = (   0.9691000   1.2344501   0.7635928  )
       480           C   tau( 480) = (   0.0937400   0.0000132   0.9163416  )
       481           C   tau( 481) = (   0.0938100   0.1322616   0.9926816  )
       482           C   tau( 482) = (   0.2191000   0.0881788   0.9163416  )
       483           C   tau( 483) = (   0.2191000   0.2204536   0.9926816  )
       484           C   tau( 484) = (   0.3437400   0.0000000   0.9163416  )
       485           C   tau( 485) = (   0.3438100   0.1322748   0.9926816  )
       486           C   tau( 486) = (   0.4691000   0.0440960   0.9926816  )
       487           C   tau( 487) = (   0.4691000   0.1763443   0.9163416  )
       488           C   tau( 488) = (   0.5937400   0.0000397   0.9163553  )
       489           C   tau( 489) = (   0.5938100   0.1322880   0.9926816  )
       490           C   tau( 490) = (   0.7191000   0.0881920   0.9163416  )
       491           C   tau( 491) = (   0.7191000   0.2204668   0.9926679  )
       492           C   tau( 492) = (   0.8437400   0.0000132   0.9163416  )
       493           C   tau( 493) = (   0.8438000   0.1322748   0.9926954  )
       494           C   tau( 494) = (   0.9691000   0.0440960   0.9926816  )
       495           C   tau( 495) = (   0.9691000   0.1763576   0.9163416  )
       496           C   tau( 496) = (   0.0937300   0.2645231   0.9163278  )
       497           C   tau( 497) = (   0.0938100   0.3967979   0.9926816  )
       498           C   tau( 498) = (   0.2190800   0.3527019   0.9163416  )
       499           C   tau( 499) = (   0.2191000   0.4849767   0.9926541  )
       500           C   tau( 500) = (   0.3437300   0.2645231   0.9163416  )
       501           C   tau( 501) = (   0.3438000   0.3967979   0.9926816  )
       502           C   tau( 502) = (   0.4691000   0.3086191   0.9926816  )
       503           C   tau( 503) = (   0.4690900   0.4408410   0.9163278  )
       504           C   tau( 504) = (   0.5937400   0.2645496   0.9163141  )
       505           C   tau( 505) = (   0.5938000   0.3968376   0.9926266  )
       506           C   tau( 506) = (   0.7191000   0.3527416   0.9163141  )
       507           C   tau( 507) = (   0.7191000   0.4850296   0.9925442  )
       508           C   tau( 508) = (   0.8437400   0.2645496   0.9163278  )
       509           C   tau( 509) = (   0.8438100   0.3968112   0.9926816  )
       510           C   tau( 510) = (   0.9691000   0.3086059   0.9926816  )
       511           C   tau( 511) = (   0.9690900   0.4408939   0.9163416  )
       512           C   tau( 512) = (   0.0937400   0.5290859   0.9163003  )
       513           C   tau( 513) = (   0.0937900   0.6612946   0.9926404  )
       514           C   tau( 514) = (   0.2192200   0.6172647   0.9162454  )
       515           C   tau( 515) = (   0.2190800   0.7494734   0.9926954  )
       516           C   tau( 516) = (   0.3437500   0.5290463   0.9163278  )
       517           C   tau( 517) = (   0.3438600   0.6613211   0.9925991  )
       518           C   tau( 518) = (   0.4691100   0.5731158   0.9926129  )
       519           C   tau( 519) = (   0.4692100   0.7053245   0.9160529  )
       520           C   tau( 520) = (   0.5936800   0.5290595   0.9160392  )
       521           C   tau( 521) = (   0.5938100   0.6612417   0.9919806  )
       522           C   tau( 522) = (   0.7190100   0.6172647   0.9159980  )
       523           C   tau( 523) = (   0.7191600   0.7494866   0.9927641  )
       524           C   tau( 524) = (   0.8437000   0.5290727   0.9162591  )
       525           C   tau( 525) = (   0.8437400   0.6612814   0.9925854  )
       526           C   tau( 526) = (   0.9690800   0.5731158   0.9926541  )
       527           C   tau( 527) = (   0.9689300   0.7053509   0.9162316  )
       528           C   tau( 528) = (   0.0937500   0.7935165   0.9163416  )
       529           C   tau( 529) = (   0.0938000   0.9258177   0.9926954  )
       530           C   tau( 530) = (   0.2191000   0.8817217   0.9163416  )
       531           C   tau( 531) = (   0.2191100   1.0139965   0.9926679  )
       532           C   tau( 532) = (   0.3436800   0.7935033   0.9163416  )
       533           C   tau( 533) = (   0.3438300   0.9257913   0.9926404  )
       534           C   tau( 534) = (   0.4691500   0.8375464   0.9925579  )
       535           C   tau( 535) = (   0.4691200   0.9698608   0.9162591  )
       536           C   tau( 536) = (   0.5939500   0.7931726   0.9165478  )
       537           C   tau( 537) = (   0.5938400   0.9257384   0.9926129  )
       538           C   tau( 538) = (   0.7191300   0.8817746   0.9163003  )
       539           C   tau( 539) = (   0.7191000   1.0140098   0.9926679  )
       540           C   tau( 540) = (   0.8437300   0.7936223   0.9164241  )
       541           C   tau( 541) = (   0.8438000   0.9258442   0.9926954  )
       542           C   tau( 542) = (   0.9691000   0.8376390   0.9926954  )
       543           C   tau( 543) = (   0.9691300   0.9699534   0.9163691  )
       544           C   tau( 544) = (   0.0937400   1.0580925   0.9163416  )
       545           C   tau( 545) = (   0.0938100   1.1903541   0.9926816  )
       546           C   tau( 546) = (   0.2191100   1.1462581   0.9163278  )
       547           C   tau( 547) = (   0.2191000   1.2785329   0.9926816  )
       548           C   tau( 548) = (   0.3437500   1.0580396   0.9163141  )
       549           C   tau( 549) = (   0.3438100   1.1903409   0.9926816  )
       550           C   tau( 550) = (   0.4691000   1.1021489   0.9926541  )
       551           C   tau( 551) = (   0.4691000   1.2344501   0.9163416  )
       552           C   tau( 552) = (   0.5937500   1.0583703   0.9164790  )
       553           C   tau( 553) = (   0.5938000   1.1904467   0.9927366  )
       554           C   tau( 554) = (   0.7191100   1.1463507   0.9163691  )
       555           C   tau( 555) = (   0.7191000   1.2785593   0.9926954  )
       556           C   tau( 556) = (   0.8437600   1.0581587   0.9163828  )
       557           C   tau( 557) = (   0.8438100   1.1903806   0.9927091  )
       558           C   tau( 558) = (   0.9691000   1.1021885   0.9926954  )
       559           C   tau( 559) = (   0.9691000   1.2344501   0.9163416  )
       560           C   tau( 560) = (   0.0938100   0.0000000   1.0690629  )
       561           C   tau( 561) = (   0.0937400   0.1322616   1.1454167  )
       562           C   tau( 562) = (   0.2191000   0.0881788   1.0690766  )
       563           C   tau( 563) = (   0.2191000   0.2204404   1.1454167  )
       564           C   tau( 564) = (   0.3438100   0.0000000   1.0690629  )
       565           C   tau( 565) = (   0.3437400   0.1322748   1.1454167  )
       566           C   tau( 566) = (   0.4691000   0.0440960   1.1454167  )
       567           C   tau( 567) = (   0.4691000   0.1763576   1.0690766  )
       568           C   tau( 568) = (   0.5938000   0.0000397   1.0690766  )
       569           C   tau( 569) = (   0.5937300   0.1322880   1.1454167  )
       570           C   tau( 570) = (   0.7191000   0.0882052   1.0690766  )
       571           C   tau( 571) = (   0.7191000   0.2204536   1.1454167  )
       572           C   tau( 572) = (   0.8438100   0.0000132   1.0690766  )
       573           C   tau( 573) = (   0.8437400   0.1322748   1.1454304  )
       574           C   tau( 574) = (   0.9691000   0.0440960   1.1454304  )
       575           C   tau( 575) = (   0.9691000   0.1763443   1.0690766  )
       576           C   tau( 576) = (   0.0938100   0.2645231   1.0690629  )
       577           C   tau( 577) = (   0.0937400   0.3967847   1.1454167  )
       578           C   tau( 578) = (   0.2191000   0.3527151   1.0690766  )
       579           C   tau( 579) = (   0.2191000   0.4849635   1.1454167  )
       580           C   tau( 580) = (   0.3438000   0.2645364   1.0690629  )
       581           C   tau( 581) = (   0.3437400   0.3967847   1.1454167  )
       582           C   tau( 582) = (   0.4691000   0.3086191   1.1454167  )
       583           C   tau( 583) = (   0.4691000   0.4408807   1.0690629  )
       584           C   tau( 584) = (   0.5938100   0.2645628   1.0690491  )
       585           C   tau( 585) = (   0.5937300   0.3968112   1.1453892  )
       586           C   tau( 586) = (   0.7191000   0.3527416   1.0690354  )
       587           C   tau( 587) = (   0.7191000   0.4849767   1.1453617  )
       588           C   tau( 588) = (   0.8438000   0.2645364   1.0690629  )
       589           C   tau( 589) = (   0.8437400   0.3967847   1.1454167  )
       590           C   tau( 590) = (   0.9691000   0.3086059   1.1454167  )
       591           C   tau( 591) = (   0.9691000   0.4408675   1.0690766  )
       592           C   tau( 592) = (   0.0938100   0.5290463   1.0690629  )
       593           C   tau( 593) = (   0.0937300   0.6613078   1.1454029  )
       594           C   tau( 594) = (   0.2191100   0.6172383   1.0690354  )
       595           C   tau( 595) = (   0.2191100   0.7494866   1.1454167  )
       596           C   tau( 596) = (   0.3438100   0.5290463   1.0690491  )
       597           C   tau( 597) = (   0.3437600   0.6613078   1.1453617  )
       598           C   tau( 598) = (   0.4691100   0.5731290   1.1453892  )
       599           C   tau( 599) = (   0.4691600   0.7053642   1.0688979  )
       600           C   tau( 600) = (   0.5937900   0.5290463   1.0689392  )
       601           C   tau( 601) = (   0.5937600   0.6612814   1.1451280  )
       602           C   tau( 602) = (   0.7190900   0.6172251   1.0689117  )
       603           C   tau( 603) = (   0.7191100   0.7494734   1.1454442  )
       604           C   tau( 604) = (   0.8438000   0.5290463   1.0690354  )
       605           C   tau( 605) = (   0.8437200   0.6612946   1.1453754  )
       606           C   tau( 606) = (   0.9691000   0.5731290   1.1454167  )
       607           C   tau( 607) = (   0.9690800   0.7053774   1.0690354  )
       608           C   tau( 608) = (   0.0938000   0.7935562   1.0690766  )
       609           C   tau( 609) = (   0.0937400   0.9258310   1.1454167  )
       610           C   tau( 610) = (   0.2191100   0.8817350   1.0690766  )
       611           C   tau( 611) = (   0.2191000   1.0139965   1.1454167  )
       612           C   tau( 612) = (   0.3438400   0.7935694   1.0690354  )
       613           C   tau( 613) = (   0.3437500   0.9258310   1.1454029  )
       614           C   tau( 614) = (   0.4691200   0.8376257   1.1453617  )
       615           C   tau( 615) = (   0.4691300   0.9698476   1.0689942  )
       616           C   tau( 616) = (   0.5938400   0.7934900   1.0691454  )
       617           C   tau( 617) = (   0.5937500   0.9257913   1.1453754  )
       618           C   tau( 618) = (   0.7191000   0.8817350   1.0690629  )
       619           C   tau( 619) = (   0.7191000   1.0139965   1.1454167  )
       620           C   tau( 620) = (   0.8438200   0.7935694   1.0691041  )
       621           C   tau( 621) = (   0.8437300   0.9258310   1.1454304  )
       622           C   tau( 622) = (   0.9691000   0.8376522   1.1454304  )
       623           C   tau( 623) = (   0.9690900   0.9699137   1.0690904  )
       624           C   tau( 624) = (   0.0938100   1.0580925   1.0690629  )
       625           C   tau( 625) = (   0.0937400   1.1903541   1.1454167  )
       626           C   tau( 626) = (   0.2191000   1.1462713   1.0690766  )
       627           C   tau( 627) = (   0.2191000   1.2785329   1.1454167  )
       628           C   tau( 628) = (   0.3438100   1.0580793   1.0690629  )
       629           C   tau( 629) = (   0.3437400   1.1903541   1.1454167  )
       630           C   tau( 630) = (   0.4691100   1.1021621   1.1454029  )
       631           C   tau( 631) = (   0.4691000   1.2344369   1.0690766  )
       632           C   tau( 632) = (   0.5938100   1.0580529   1.0690491  )
       633           C   tau( 633) = (   0.5937400   1.1903541   1.1454167  )
       634           C   tau( 634) = (   0.7191000   1.1462713   1.0690766  )
       635           C   tau( 635) = (   0.7191000   1.2785329   1.1454167  )
       636           C   tau( 636) = (   0.8438000   1.0580925   1.0690766  )
       637           C   tau( 637) = (   0.8437300   1.1903673   1.1454304  )
       638           C   tau( 638) = (   0.9691000   1.1021885   1.1454304  )
       639           C   tau( 639) = (   0.9691000   1.2344501   1.0690904  )
       640           C   tau( 640) = (   0.0938100   0.0000000   1.2217705  )
       641           C   tau( 641) = (   0.0938100   0.1322616   1.2981517  )
       642           C   tau( 642) = (   0.2191000   0.0881788   1.2217567  )
       643           C   tau( 643) = (   0.2191000   0.2204404   1.2981655  )
       644           C   tau( 644) = (   0.3438000   0.0000000   1.2217705  )
       645           C   tau( 645) = (   0.3438000   0.1322616   1.2981517  )
       646           C   tau( 646) = (   0.4691000   0.0440828   1.2981655  )
       647           C   tau( 647) = (   0.4691000   0.1763576   1.2217705  )
       648           C   tau( 648) = (   0.5938000   0.0000000   1.2217705  )
       649           C   tau( 649) = (   0.5938000   0.1322748   1.2981517  )
       650           C   tau( 650) = (   0.7191000   0.0881920   1.2217567  )
       651           C   tau( 651) = (   0.7191000   0.2204404   1.2981655  )
       652           C   tau( 652) = (   0.8438100   0.0000132   1.2217705  )
       653           C   tau( 653) = (   0.8438100   0.1322616   1.2981517  )
       654           C   tau( 654) = (   0.9691000   0.0440828   1.2981655  )
       655           C   tau( 655) = (   0.9691000   0.1763443   1.2217705  )
       656           C   tau( 656) = (   0.0938100   0.2645231   1.2217705  )
       657           C   tau( 657) = (   0.0938100   0.3967847   1.2981517  )
       658           C   tau( 658) = (   0.2191000   0.3527019   1.2217567  )
       659           C   tau( 659) = (   0.2191000   0.4849635   1.2981655  )
       660           C   tau( 660) = (   0.3438000   0.2645231   1.2217705  )
       661           C   tau( 661) = (   0.3438100   0.3967847   1.2981517  )
       662           C   tau( 662) = (   0.4691000   0.3086059   1.2981655  )
       663           C   tau( 663) = (   0.4691000   0.4408675   1.2217567  )
       664           C   tau( 664) = (   0.5938000   0.2645364   1.2217705  )
       665           C   tau( 665) = (   0.5938000   0.3967979   1.2981380  )
       666           C   tau( 666) = (   0.7191000   0.3527151   1.2217567  )
       667           C   tau( 667) = (   0.7191000   0.4849635   1.2981517  )
       668           C   tau( 668) = (   0.8438100   0.2645231   1.2217705  )
       669           C   tau( 669) = (   0.8438100   0.3967847   1.2981517  )
       670           C   tau( 670) = (   0.9691000   0.3086059   1.2981655  )
       671           C   tau( 671) = (   0.9691000   0.4408675   1.2217705  )
       672           C   tau( 672) = (   0.0938100   0.5290463   1.2217705  )
       673           C   tau( 673) = (   0.0938100   0.6613078   1.2981517  )
       674           C   tau( 674) = (   0.2191100   0.6172251   1.2217567  )
       675           C   tau( 675) = (   0.2191000   0.7494866   1.2981655  )
       676           C   tau( 676) = (   0.3438100   0.5290463   1.2217705  )
       677           C   tau( 677) = (   0.3438200   0.6613078   1.2981380  )
       678           C   tau( 678) = (   0.4691000   0.5731290   1.2981517  )
       679           C   tau( 679) = (   0.4691300   0.7053774   1.2216880  )
       680           C   tau( 680) = (   0.5938000   0.5290463   1.2217155  )
       681           C   tau( 681) = (   0.5938100   0.6612946   1.2980830  )
       682           C   tau( 682) = (   0.7190900   0.6172251   1.2217017  )
       683           C   tau( 683) = (   0.7191000   0.7494866   1.2981655  )
       684           C   tau( 684) = (   0.8438000   0.5290463   1.2217567  )
       685           C   tau( 685) = (   0.8438000   0.6613078   1.2981380  )
       686           C   tau( 686) = (   0.9691000   0.5731290   1.2981655  )
       687           C   tau( 687) = (   0.9690900   0.7053774   1.2217430  )
       688           C   tau( 688) = (   0.0938100   0.7935562   1.2217705  )
       689           C   tau( 689) = (   0.0938100   0.9258310   1.2981517  )
       690           C   tau( 690) = (   0.2191000   0.8817482   1.2217705  )
       691           C   tau( 691) = (   0.2191000   1.0140098   1.2981655  )
       692           C   tau( 692) = (   0.3438200   0.7935694   1.2217567  )
       693           C   tau( 693) = (   0.3438100   0.9258310   1.2981517  )
       694           C   tau( 694) = (   0.4691000   0.8376390   1.2981380  )
       695           C   tau( 695) = (   0.4691100   0.9699005   1.2217292  )
       696           C   tau( 696) = (   0.5938100   0.7935297   1.2217842  )
       697           C   tau( 697) = (   0.5938100   0.9258177   1.2981380  )
       698           C   tau( 698) = (   0.7191000   0.8817482   1.2217567  )
       699           C   tau( 699) = (   0.7191000   1.0140098   1.2981655  )
       700           C   tau( 700) = (   0.8438100   0.7935694   1.2217842  )
       701           C   tau( 701) = (   0.8438100   0.9258310   1.2981517  )
       702           C   tau( 702) = (   0.9691000   0.8376522   1.2981655  )
       703           C   tau( 703) = (   0.9691000   0.9699137   1.2217705  )
       704           C   tau( 704) = (   0.0938000   1.0580925   1.2217705  )
       705           C   tau( 705) = (   0.0938100   1.1903541   1.2981517  )
       706           C   tau( 706) = (   0.2191000   1.1462713   1.2217705  )
       707           C   tau( 707) = (   0.2191000   1.2785329   1.2981655  )
       708           C   tau( 708) = (   0.3438100   1.0580925   1.2217705  )
       709           C   tau( 709) = (   0.3438000   1.1903541   1.2981517  )
       710           C   tau( 710) = (   0.4691000   1.1021753   1.2981517  )
       711           C   tau( 711) = (   0.4691000   1.2344369   1.2217567  )
       712           C   tau( 712) = (   0.5938100   1.0580793   1.2217567  )
       713           C   tau( 713) = (   0.5938100   1.1903541   1.2981517  )
       714           C   tau( 714) = (   0.7191000   1.1462713   1.2217705  )
       715           C   tau( 715) = (   0.7191000   1.2785329   1.2981655  )
       716           C   tau( 716) = (   0.8438000   1.0580925   1.2217705  )
       717           C   tau( 717) = (   0.8438100   1.1903541   1.2981517  )
       718           C   tau( 718) = (   0.9691000   1.1021753   1.2981655  )
       719           C   tau( 719) = (   0.9691000   1.2344369   1.2217705  )
       720           Si  tau( 720) = (   0.0000400   1.3226024   0.0000000  )
       721           Si  tau( 721) = (   0.0000600   0.1322483   0.0763675  )
       722           Si  tau( 722) = (   0.1250900   0.0881523   0.0000000  )
       723           Si  tau( 723) = (   0.1250800   0.2204271   0.0763538  )
       724           Si  tau( 724) = (   0.2500400   0.0000000   0.0000000  )
       725           Si  tau( 725) = (   0.2500600   0.1322483   0.0763675  )
       726           Si  tau( 726) = (   0.3750800   0.0440696   0.0763538  )
       727           Si  tau( 727) = (   0.3750900   0.1763576   0.0000000  )
       728           Si  tau( 728) = (   0.5000400   1.3226024   0.0000000  )
       729           Si  tau( 729) = (   0.5000600   0.1322483   0.0763675  )
       730           Si  tau( 730) = (   0.6250900   0.0881523   0.0000000  )
       731           Si  tau( 731) = (   0.6250800   0.2204404   0.0763538  )
       732           Si  tau( 732) = (   0.7500400   0.0000000   0.0000000  )
       733           Si  tau( 733) = (   0.7500600   0.1322483   0.0763675  )
       734           Si  tau( 734) = (   0.8750800   0.0440696   0.0763538  )
       735           Si  tau( 735) = (   0.8750900   0.1763443   0.0000000  )
       736           Si  tau( 736) = (   0.0000400   0.2645099   0.0000000  )
       737           Si  tau( 737) = (   0.0000600   0.3967847   0.0763538  )
       738           Si  tau( 738) = (   0.1250800   0.3526887   0.0000000  )
       739           Si  tau( 739) = (   0.1250800   0.4849635   0.0763538  )
       740           Si  tau( 740) = (   0.2500400   0.2645231   0.0000000  )
       741           Si  tau( 741) = (   0.2500600   0.3967847   0.0763675  )
       742           Si  tau( 742) = (   0.3750800   0.3086059   0.0763538  )
       743           Si  tau( 743) = (   0.3750800   0.4408807   0.0000000  )
       744           Si  tau( 744) = (   0.5000400   0.2645099   0.0000000  )
       745           Si  tau( 745) = (   0.5000600   0.3967847   0.0763538  )
       746           Si  tau( 746) = (   0.6250900   0.3526887   0.0000000  )
       747           Si  tau( 747) = (   0.6250900   0.4849767   0.0763675  )
       748           Si  tau( 748) = (   0.7500400   0.2645231   0.0000000  )
       749           Si  tau( 749) = (   0.7500700   0.3967847   0.0763675  )
       750           Si  tau( 750) = (   0.8750900   0.3086059   0.0763538  )
       751           Si  tau( 751) = (   0.8750900   0.4408807   0.0000000  )
       752           Si  tau( 752) = (   0.0000400   0.5290463   0.0000000  )
       753           Si  tau( 753) = (   0.0000600   0.6613211   0.0763675  )
       754           Si  tau( 754) = (   0.1250800   0.6172251   0.0000000  )
       755           Si  tau( 755) = (   0.1250800   0.7494998   0.0763538  )
       756           Si  tau( 756) = (   0.2500400   0.5290595   0.0000000  )
       757           Si  tau( 757) = (   0.2500600   0.6613211   0.0763675  )
       758           Si  tau( 758) = (   0.3750800   0.5731423   0.0763538  )
       759           Si  tau( 759) = (   0.3750900   0.7054171   0.0000000  )
       760           Si  tau( 760) = (   0.5000400   0.5290463   0.0000000  )
       761           Si  tau( 761) = (   0.5000700   0.6613211   0.0763950  )
       762           Si  tau( 762) = (   0.6250900   0.6172118   0.0000000  )
       763           Si  tau( 763) = (   0.6250900   0.7494998   0.0763675  )
       764           Si  tau( 764) = (   0.7500400   0.5290595   0.0000000  )
       765           Si  tau( 765) = (   0.7500500   0.6613211   0.0763813  )
       766           Si  tau( 766) = (   0.8750800   0.5731423   0.0763538  )
       767           Si  tau( 767) = (   0.8750800   0.7054171   0.0000000  )
       768           Si  tau( 768) = (   0.0000400   0.7935694   0.0000000  )
       769           Si  tau( 769) = (   0.0000600   0.9258442   0.0763675  )
       770           Si  tau( 770) = (   0.1250900   0.8817350   0.0000000  )
       771           Si  tau( 771) = (   0.1250800   1.0140098   0.0763538  )
       772           Si  tau( 772) = (   0.2500400   0.7935826   0.0000000  )
       773           Si  tau( 773) = (   0.2500600   0.9258310   0.0763675  )
       774           Si  tau( 774) = (   0.3750900   0.8376654   0.0763675  )
       775           Si  tau( 775) = (   0.3750900   0.9699270   0.0000000  )
       776           Si  tau( 776) = (   0.5000500   0.7935694   0.0000000  )
       777           Si  tau( 777) = (   0.5000700   0.9258310   0.0763813  )
       778           Si  tau( 778) = (   0.6250900   0.8817350   0.0000000  )
       779           Si  tau( 779) = (   0.6250800   1.0140098   0.0763675  )
       780           Si  tau( 780) = (   0.7500400   0.7935826   0.0000000  )
       781           Si  tau( 781) = (   0.7500600   0.9258310   0.0763675  )
       782           Si  tau( 782) = (   0.8750800   0.8376654   0.0763538  )
       783           Si  tau( 783) = (   0.8750800   0.9699270   0.0000000  )
       784           Si  tau( 784) = (   0.0000400   1.0580925   0.0000000  )
       785           Si  tau( 785) = (   0.0000600   1.1903541   0.0763675  )
       786           Si  tau( 786) = (   0.1250900   1.1462581   0.0000000  )
       787           Si  tau( 787) = (   0.1250800   1.2785197   0.0763538  )
       788           Si  tau( 788) = (   0.2500400   1.0580925   0.0000000  )
       789           Si  tau( 789) = (   0.2500600   1.1903409   0.0763675  )
       790           Si  tau( 790) = (   0.3750900   1.1021753   0.0763675  )
       791           Si  tau( 791) = (   0.3750900   1.2344369   0.0000000  )
       792           Si  tau( 792) = (   0.5000500   1.0580925   0.0000000  )
       793           Si  tau( 793) = (   0.5000600   1.1903541   0.0763675  )
       794           Si  tau( 794) = (   0.6250900   1.1462581   0.0000000  )
       795           Si  tau( 795) = (   0.6250800   1.2785197   0.0763538  )
       796           Si  tau( 796) = (   0.7500400   1.0580925   0.0000000  )
       797           Si  tau( 797) = (   0.7500600   1.1903409   0.0763675  )
       798           Si  tau( 798) = (   0.8750800   1.1021753   0.0763538  )
       799           Si  tau( 799) = (   0.8750900   1.2344369   0.0000000  )
       800           Si  tau( 800) = (   0.0000600   1.3226024   0.1527213  )
       801           Si  tau( 801) = (   0.0000400   0.1322483   0.2290751  )
       802           Si  tau( 802) = (   0.1250800   0.0881656   0.1527213  )
       803           Si  tau( 803) = (   0.1250800   0.2204139   0.2290751  )
       804           Si  tau( 804) = (   0.2500600   1.3226024   0.1527213  )
       805           Si  tau( 805) = (   0.2500400   0.1322616   0.2290888  )
       806           Si  tau( 806) = (   0.3750900   0.0440828   0.2290888  )
       807           Si  tau( 807) = (   0.3750800   0.1763311   0.1527213  )
       808           Si  tau( 808) = (   0.5000600   1.3226024   0.1527213  )
       809           Si  tau( 809) = (   0.5000400   0.1322483   0.2290751  )
       810           Si  tau( 810) = (   0.6250800   0.0881788   0.1527351  )
       811           Si  tau( 811) = (   0.6250900   0.2204271   0.2290751  )
       812           Si  tau( 812) = (   0.7500600   1.3226024   0.1527213  )
       813           Si  tau( 813) = (   0.7500400   0.1322616   0.2290888  )
       814           Si  tau( 814) = (   0.8750900   0.0440828   0.2290888  )
       815           Si  tau( 815) = (   0.8750900   0.1763311   0.1527213  )
       816           Si  tau( 816) = (   0.0000600   0.2645099   0.1527076  )
       817           Si  tau( 817) = (   0.0000400   0.3967715   0.2290751  )
       818           Si  tau( 818) = (   0.1250800   0.3527019   0.1527213  )
       819           Si  tau( 819) = (   0.1250800   0.4849503   0.2290751  )
       820           Si  tau( 820) = (   0.2500600   0.2645231   0.1527213  )
       821           Si  tau( 821) = (   0.2500300   0.3967979   0.2290751  )
       822           Si  tau( 822) = (   0.3750800   0.3086191   0.2290751  )
       823           Si  tau( 823) = (   0.3750800   0.4408675   0.1527213  )
       824           Si  tau( 824) = (   0.5000600   0.2645099   0.1527076  )
       825           Si  tau( 825) = (   0.5000400   0.3967715   0.2290613  )
       826           Si  tau( 826) = (   0.6250900   0.3527019   0.1527351  )
       827           Si  tau( 827) = (   0.6251000   0.4849635   0.2291301  )
       828           Si  tau( 828) = (   0.7500700   0.2645231   0.1527213  )
       829           Si  tau( 829) = (   0.7500500   0.3967979   0.2290888  )
       830           Si  tau( 830) = (   0.8750900   0.3086191   0.2290751  )
       831           Si  tau( 831) = (   0.8750900   0.4408675   0.1527213  )
       832           Si  tau( 832) = (   0.0000600   0.5290463   0.1527213  )
       833           Si  tau( 833) = (   0.0000300   0.6613211   0.2291163  )
       834           Si  tau( 834) = (   0.1250800   0.6172383   0.1527351  )
       835           Si  tau( 835) = (   0.1250900   0.7494866   0.2290888  )
       836           Si  tau( 836) = (   0.2500600   0.5290595   0.1527213  )
       837           Si  tau( 837) = (   0.2500500   0.6613343   0.2291026  )
       838           Si  tau( 838) = (   0.3750900   0.5731687   0.2290751  )
       839           Si  tau( 839) = (   0.3751000   0.7054038   0.1527488  )
       840           Si  tau( 840) = (   0.5000600   0.5290595   0.1527351  )
       841           Si  tau( 841) = (   0.5000600   0.6613211   0.2291988  )
       842           Si  tau( 842) = (   0.6250900   0.6172251   0.1528725  )
       843           Si  tau( 843) = (   0.6251100   0.7494998   0.2291026  )
       844           Si  tau( 844) = (   0.7500700   0.5290595   0.1527351  )
       845           Si  tau( 845) = (   0.7500300   0.6613475   0.2291576  )
       846           Si  tau( 846) = (   0.8750900   0.5731555   0.2290888  )
       847           Si  tau( 847) = (   0.8750700   0.7054038   0.1527488  )
       848           Si  tau( 848) = (   0.0000600   0.7935826   0.1527213  )
       849           Si  tau( 849) = (   0.0000300   0.9258310   0.2291026  )
       850           Si  tau( 850) = (   0.1250800   0.8817614   0.1527351  )
       851           Si  tau( 851) = (   0.1250900   1.0139965   0.2290888  )
       852           Si  tau( 852) = (   0.2500700   0.7935826   0.1527213  )
       853           Si  tau( 853) = (   0.2500500   0.9258442   0.2290888  )
       854           Si  tau( 854) = (   0.3751200   0.8376786   0.2291163  )
       855           Si  tau( 855) = (   0.3750900   0.9699137   0.1527488  )
       856           Si  tau( 856) = (   0.5000800   0.7935826   0.1527625  )
       857           Si  tau( 857) = (   0.5000600   0.9258177   0.2291576  )
       858           Si  tau( 858) = (   0.6250800   0.8817482   0.1527763  )
       859           Si  tau( 859) = (   0.6250800   1.0139701   0.2291301  )
       860           Si  tau( 860) = (   0.7500700   0.7935826   0.1527213  )
       861           Si  tau( 861) = (   0.7500300   0.9258310   0.2291301  )
       862           Si  tau( 862) = (   0.8750800   0.8376786   0.2290888  )
       863           Si  tau( 863) = (   0.8750800   0.9699137   0.1527351  )
       864           Si  tau( 864) = (   0.0000600   1.0580925   0.1527213  )
       865           Si  tau( 865) = (   0.0000400   1.1903409   0.2290888  )
       866           Si  tau( 866) = (   0.1250800   1.1462713   0.1527351  )
       867           Si  tau( 867) = (   0.1250900   1.2785064   0.2290888  )
       868           Si  tau( 868) = (   0.2500700   1.0580925   0.1527213  )
       869           Si  tau( 869) = (   0.2500500   1.1903409   0.2290888  )
       870           Si  tau( 870) = (   0.3751000   1.1021753   0.2291026  )
       871           Si  tau( 871) = (   0.3750900   1.2344237   0.1527351  )
       872           Si  tau( 872) = (   0.5000700   1.0580793   0.1527488  )
       873           Si  tau( 873) = (   0.5000500   1.1903277   0.2291026  )
       874           Si  tau( 874) = (   0.6250800   1.1462581   0.1527488  )
       875           Si  tau( 875) = (   0.6250900   1.2785064   0.2290888  )
       876           Si  tau( 876) = (   0.7500600   1.0580793   0.1527351  )
       877           Si  tau( 877) = (   0.7500400   1.1903409   0.2291026  )
       878           Si  tau( 878) = (   0.8750800   1.1021753   0.2291026  )
       879           Si  tau( 879) = (   0.8750800   1.2344237   0.1527351  )
       880           Si  tau( 880) = (   0.0000600   1.3226024   0.3054426  )
       881           Si  tau( 881) = (   0.0000600   0.1322483   0.3817964  )
       882           Si  tau( 882) = (   0.1250800   0.0881656   0.3054426  )
       883           Si  tau( 883) = (   0.1250800   0.2204271   0.3818101  )
       884           Si  tau( 884) = (   0.2500600   1.3226024   0.3054564  )
       885           Si  tau( 885) = (   0.2500600   0.1322483   0.3818101  )
       886           Si  tau( 886) = (   0.3750900   0.0440696   0.3818101  )
       887           Si  tau( 887) = (   0.3750800   0.1763311   0.3054426  )
       888           Si  tau( 888) = (   0.5000600   1.3226024   0.3054564  )
       889           Si  tau( 889) = (   0.5000600   0.1322351   0.3817964  )
       890           Si  tau( 890) = (   0.6250800   0.0881788   0.3054289  )
       891           Si  tau( 891) = (   0.6250900   0.2204271   0.3817964  )
       892           Si  tau( 892) = (   0.7500600   0.0000000   0.3054564  )
       893           Si  tau( 893) = (   0.7500700   0.1322483   0.3818101  )
       894           Si  tau( 894) = (   0.8750800   0.0440696   0.3818101  )
       895           Si  tau( 895) = (   0.8750900   0.1763311   0.3054289  )
       896           Si  tau( 896) = (   0.0000600   0.2645099   0.3054426  )
       897           Si  tau( 897) = (   0.0000600   0.3967847   0.3817964  )
       898           Si  tau( 898) = (   0.1250800   0.3527019   0.3054289  )
       899           Si  tau( 899) = (   0.1250600   0.4849899   0.3818239  )
       900           Si  tau( 900) = (   0.2500600   0.2645231   0.3054426  )
       901           Si  tau( 901) = (   0.2500400   0.3967847   0.3817964  )
       902           Si  tau( 902) = (   0.3750700   0.3085927   0.3817964  )
       903           Si  tau( 903) = (   0.3750700   0.4408675   0.3054289  )
       904           Si  tau( 904) = (   0.5000600   0.2645099   0.3054289  )
       905           Si  tau( 905) = (   0.5000500   0.3967582   0.3817552  )
       906           Si  tau( 906) = (   0.6250900   0.3527151   0.3054289  )
       907           Si  tau( 907) = (   0.6251300   0.4849767   0.3818514  )
       908           Si  tau( 908) = (   0.7500700   0.2645231   0.3054426  )
       909           Si  tau( 909) = (   0.7500900   0.3968244   0.3818101  )
       910           Si  tau( 910) = (   0.8750900   0.3086059   0.3817964  )
       911           Si  tau( 911) = (   0.8750900   0.4408807   0.3054289  )
       912           Si  tau( 912) = (   0.0000600   0.5290595   0.3054564  )
       913           Si  tau( 913) = (   0.9999900   0.6613343   0.3818926  )
       914           Si  tau( 914) = (   0.1250600   0.6172515   0.3054701  )
       915           Si  tau( 915) = (   0.1250700   0.7494998   0.3818101  )
       916           Si  tau( 916) = (   0.2500500   0.5290727   0.3054426  )
       917           Si  tau( 917) = (   0.2500900   0.6613607   0.3818239  )
       918           Si  tau( 918) = (   0.3750700   0.5731687   0.3817826  )
       919           Si  tau( 919) = (   0.3751200   0.7054303   0.3054976  )
       920           Si  tau( 920) = (   0.5000500   0.5290463   0.3054564  )
       921           Si  tau( 921) = (   0.5000800   0.6613343   0.3820163  )
       922           Si  tau( 922) = (   0.6251300   0.6171854   0.3058000  )
       923           Si  tau( 923) = (   0.6251800   0.7495660   0.3818789  )
       924           Si  tau( 924) = (   0.7500900   0.5290859   0.3054976  )
       925           Si  tau( 925) = (   0.7500300   0.6614401   0.3819201  )
       926           Si  tau( 926) = (   0.8750700   0.5731687   0.3818376  )
       927           Si  tau( 927) = (   0.8750500   0.7054171   0.3055113  )
       928           Si  tau( 928) = (   0.0000400   0.7935959   0.3054701  )
       929           Si  tau( 929) = (   0.0000500   0.9258442   0.3818239  )
       930           Si  tau( 930) = (   0.1250800   0.8817614   0.3054564  )
       931           Si  tau( 931) = (   0.1250900   1.0140098   0.3818239  )
       932           Si  tau( 932) = (   0.2500900   0.7935959   0.3054564  )
       933           Si  tau( 933) = (   0.2501000   0.9258177   0.3818239  )
       934           Si  tau( 934) = (   0.3751700   0.8376522   0.3818789  )
       935           Si  tau( 935) = (   0.3751300   0.9698873   0.3054976  )
       936           Si  tau( 936) = (   0.5001400   0.7935959   0.3055663  )
       937           Si  tau( 937) = (   0.5001400   0.9257648   0.3819613  )
       938           Si  tau( 938) = (   0.6250900   0.8817217   0.3055526  )
       939           Si  tau( 939) = (   0.6250700   1.0139701   0.3819064  )
       940           Si  tau( 940) = (   0.7500700   0.7935959   0.3054426  )
       941           Si  tau( 941) = (   0.7500200   0.9258045   0.3819201  )
       942           Si  tau( 942) = (   0.8750600   0.8376654   0.3818101  )
       943           Si  tau( 943) = (   0.8750600   0.9699005   0.3054701  )
       944           Si  tau( 944) = (   0.0000500   1.0580925   0.3054564  )
       945           Si  tau( 945) = (   0.0000600   1.1903409   0.3818101  )
       946           Si  tau( 946) = (   0.1250800   1.1462581   0.3054426  )
       947           Si  tau( 947) = (   0.1250800   1.2785197   0.3818101  )
       948           Si  tau( 948) = (   0.2500800   1.0580793   0.3054701  )
       949           Si  tau( 949) = (   0.2500700   1.1903277   0.3818239  )
       950           Si  tau( 950) = (   0.3751100   1.1021356   0.3818514  )
       951           Si  tau( 951) = (   0.3750900   1.2344104   0.3054564  )
       952           Si  tau( 952) = (   0.5000800   1.0580396   0.3055113  )
       953           Si  tau( 953) = (   0.5000700   1.1903144   0.3818239  )
       954           Si  tau( 954) = (   0.6250800   1.1462316   0.3054701  )
       955           Si  tau( 955) = (   0.6250800   1.2785461   0.3817964  )
       956           Si  tau( 956) = (   0.7500400   1.0580661   0.3054976  )
       957           Si  tau( 957) = (   0.7500600   1.1903541   0.3818101  )
       958           Si  tau( 958) = (   0.8750800   1.1021753   0.3818239  )
       959           Si  tau( 959) = (   0.8750800   1.2344237   0.3054426  )
       960           Si  tau( 960) = (   0.0000400   1.3225892   0.4581639  )
       961           Si  tau( 961) = (   0.0000600   0.1322351   0.5345314  )
       962           Si  tau( 962) = (   0.1250800   0.0881523   0.4581639  )
       963           Si  tau( 963) = (   0.1250700   0.2204271   0.5345177  )
       964           Si  tau( 964) = (   0.2500500   1.3226024   0.4581777  )
[...]
     1.0000   1.0000   1.0000   1.0000   1.0000   1.0000   1.0000   1.0000
     1.0000   1.0000   1.0000   1.0000   1.0000   1.0000   1.0000   1.0000
     1.0000   1.0000   1.0000   1.0000   1.0000   1.0000   1.0000   1.0000
     1.0000   1.0000   1.0000   1.0000   1.0000   1.0000   1.0000   1.0000
     1.0000   1.0000   1.0000   1.0000   1.0000   1.0000   1.0000   1.0000
     1.0000   1.0000   1.0000   1.0000   1.0000   1.0000   1.0000   1.0000
     1.0000   1.0000   1.0000   1.0000   1.0000   1.0000   1.0000   1.0000
     1.0000   1.0000   1.0000   1.0000   1.0000   1.0000   1.0000   1.0000
     1.0000   1.0000   1.0000   1.0000   1.0000   1.0000   1.0000   1.0000
     1.0000   1.0000   1.0000   1.0000   1.0000   1.0000   1.0000   1.0000
     1.0000   1.0000   1.0000   1.0000   1.0000   1.0000   1.0000   1.0000
     1.0000   1.0000   1.0000   1.0000   1.0000   1.0000   1.0000   1.0000
     1.0000   1.0000   1.0000   1.0000   1.0000   1.0000   1.0000   1.0000
     1.0000   1.0000   1.0000   1.0000   1.0000   1.0000   1.0000   1.0000
     1.0000   1.0000   1.0000   1.0000   1.0000   1.0000   1.0000   1.0000
     1.0000   1.0000   1.0000   1.0000   1.0000   1.0000   1.0000   1.0000
     1.0000   1.0000   1.0000   1.0000   1.0000   1.0000   1.0000   1.0000
     1.0000   1.0000   1.0000   1.0000   1.0000   1.0000   1.0000   1.0000
     1.0000   1.0000   1.0000   1.0000   1.0000   1.0000   1.0000   1.0000
     1.0000   1.0000   1.0000   1.0000   1.0000   1.0000   1.0000   1.0000
     1.0000   1.0000   1.0000   1.0000   1.0000   1.0000   1.0000   1.0000
     1.0000   1.0000   1.0000   1.0000   1.0000   1.0000   1.0000   1.0000
     1.0000   1.0000   1.0000   1.0000   1.0000   1.0000   1.0000   1.0000
     1.0000   1.0000   1.0000   1.0000   1.0000   1.0000   1.0000   1.0000
     1.0000   1.0000   1.0000   1.0000   1.0000   1.0000   1.0000   1.0000
     1.0000   1.0000   1.0000   1.0000   1.0000   1.0000   1.0000   1.0000
     1.0000   1.0000   1.0000   1.0000   1.0000   1.0000   1.0000   1.0000
     1.0000   1.0000   1.0000   1.0000   1.0000   1.0000   1.0000   1.0000
     1.0000   1.0000   1.0000   1.0000   1.0000   1.0000   1.0000   1.0000
     1.0000   1.0000   1.0000   1.0000   1.0000   1.0000   1.0000   1.0000
     1.0000   1.0000   1.0000   1.0000   1.0000   1.0000   1.0000   1.0000
     1.0000   1.0000   1.0000   1.0000   1.0000   1.0000   1.0000   1.0000
     1.0000   1.0000   1.0000   1.0000   1.0000   1.0000   1.0000   1.0000
     1.0000   1.0000   1.0000   1.0000   1.0000   1.0000   1.0000   1.0000
     1.0000   1.0000   1.0000   1.0000   1.0000   1.0000   1.0000   1.0000
     1.0000   1.0000   1.0000   1.0000   1.0000   1.0000   1.0000   1.0000
     1.0000   1.0000   1.0000   1.0000   1.0000   1.0000   1.0000   1.0000
     1.0000   1.0000   1.0000   1.0000   1.0000   1.0000   1.0000   1.0000
     1.0000   1.0000   1.0000   1.0000   1.0000   1.0000   1.0000   1.0000
     1.0000   1.0000   1.0000   1.0000   1.0000   1.0000   1.0000   1.0000
     1.0000   1.0000   1.0000   1.0000   1.0000   1.0000   1.0000   1.0000
     1.0000   1.0000   1.0000   1.0000   1.0000   1.0000   1.0000   1.0000
     1.0000   1.0000   1.0000   1.0000   1.0000   1.0000   1.0000   1.0000
     1.0000   1.0000   1.0000   1.0000   1.0000   1.0000   1.0000   1.0000
     1.0000   1.0000   1.0000   1.0000   1.0000   1.0000   1.0000   1.0000
     1.0000   1.0000   1.0000   1.0000   1.0000   1.0000   1.0000   1.0000
     1.0000   1.0000   1.0000   1.0000   1.0000   1.0000   1.0000   1.0000
     1.0000   1.0000   1.0000   1.0000   1.0000   1.0000   1.0000   1.0000
     1.0000   1.0000   1.0000   1.0000   1.0000   1.0000   1.0000   1.0000
     1.0000   1.0000   1.0000   1.0000   1.0000   1.0000   1.0000   1.0000
     1.0000   1.0000   1.0000   1.0000   1.0000   1.0000   1.0000   1.0000
     1.0000   1.0000   1.0000   1.0000   1.0000   1.0000   1.0000   1.0000
     1.0000   1.0000   1.0000   1.0000   1.0000   1.0000   1.0000   1.0000
     1.0000   1.0000   1.0000   1.0000   1.0000   1.0000   1.0000   1.0000
     1.0000   1.0000   1.0000   1.0000   1.0000   1.0000   1.0000   1.0000
     1.0000   1.0000   1.0000   1.0000   1.0000   1.0000   1.0000   1.0000
     1.0000   1.0000   1.0000   1.0000   1.0000   1.0000   1.0000   1.0000
     1.0000   1.0000   1.0000   1.0000   1.0000   1.0000   1.0000   1.0000
     1.0000   1.0000   1.0000   1.0000   1.0000   1.0000   1.0000   1.0000
     1.0000   1.0000   1.0000   1.0000   1.0000   1.0000   1.0000   1.0000
     1.0000   1.0000   1.0000   1.0000   1.0000   1.0000   1.0000   1.0000
     1.0000   1.0000   1.0000   1.0000   1.0000   1.0000   1.0000   1.0000
     1.0000   1.0000   1.0000   1.0000   1.0000   1.0000   1.0000   1.0000
     1.0000   1.0000   1.0000   1.0000   1.0000   1.0000   1.0000   1.0000
     1.0000   1.0000   1.0000   1.0000   1.0000   1.0000   1.0000   1.0000
     1.0000   1.0000   1.0000   1.0000   1.0000   1.0000   1.0000   1.0000
     1.0000   1.0000   1.0000   1.0000   1.0000   1.0000   1.0000   1.0000
     1.0000   1.0000   1.0000   1.0000   1.0000   1.0000   1.0000   1.0000
     1.0000   1.0000   1.0000   1.0000   1.0000   1.0000   1.0000   1.0000
     1.0000   1.0000   1.0000   1.0000   1.0000   1.0000   1.0000   1.0000
     1.0000   1.0000   1.0000   1.0000   1.0000   1.0000   1.0000   1.0000
     1.0000   1.0000   1.0000   1.0000   1.0000   1.0000   1.0000   1.0000
     1.0000   1.0000   1.0000   1.0000   1.0000   1.0000   1.0000   1.0000
     1.0000   1.0000   1.0000   1.0000   1.0000   1.0000   1.0000   1.0000
     1.0000   1.0000   1.0000   1.0000   1.0000   1.0000   1.0000   1.0000
     1.0000   1.0000   1.0000   1.0000   1.0000   1.0000   1.0000   1.0000
     1.0000   1.0000   1.0000   1.0000   1.0000   1.0000   1.0000   1.0000
     1.0000   1.0000   1.0000   1.0000   1.0000   1.0000   1.0000   1.0000
     1.0000   1.0000   1.0000   1.0000   1.0000   1.0000   1.0000   1.0000
     1.0000   1.0000   1.0000   1.0000   1.0000   1.0000   1.0000   1.0000
     1.0000   1.0000   1.0000   1.0000   1.0000   1.0000   1.0000   1.0000
     1.0000   1.0000   1.0000   1.0000   1.0000   1.0000   1.0000   1.0000
     1.0000   1.0000   1.0000   1.0000   1.0000   1.0000   1.0000   1.0000
     1.0000   1.0000   1.0000   1.0000   1.0000   1.0000   1.0000   1.0000
     1.0000   1.0000   1.0000   1.0000   1.0000   1.0000   1.0000   1.0000
     1.0000   1.0000   1.0000   1.0000   1.0000   1.0000   1.0000   1.0000
     1.0000   1.0000   1.0000   1.0000   1.0000   1.0000   1.0000   1.0000
     1.0000   1.0000   1.0000   1.0000   1.0000   1.0000   1.0000   1.0000
     1.0000   1.0000   1.0000   1.0000   1.0000   1.0000   1.0000   1.0000
     1.0000   1.0000   1.0000   1.0000   1.0000   1.0000   1.0000   1.0000
     1.0000   1.0000   1.0000   1.0000   1.0000   1.0000   1.0000   1.0000
     1.0000   1.0000   1.0000   1.0000   1.0000   1.0000   1.0000   1.0000
     1.0000   1.0000   1.0000   1.0000   1.0000   1.0000   1.0000   1.0000
     1.0000   1.0000   1.0000   1.0000   1.0000   1.0000   1.0000   1.0000
     1.0000   1.0000   1.0000   1.0000   1.0000   1.0000   1.0000   1.0000
     1.0000   1.0000   1.0000   1.0000   1.0000   1.0000   1.0000   1.0000
     1.0000   1.0000   1.0000   1.0000   1.0000   1.0000   1.0000   1.0000
     1.0000   1.0000   1.0000   1.0000   1.0000   1.0000   1.0000   1.0000
     1.0000   1.0000   1.0000   1.0000   1.0000   1.0000   1.0000   1.0000
     1.0000   1.0000   1.0000   1.0000   1.0000   1.0000   1.0000   1.0000
     1.0000   1.0000   1.0000   1.0000   1.0000   1.0000   1.0000   1.0000
     1.0000   1.0000   1.0000   1.0000   1.0000   1.0000   1.0000   1.0000
     1.0000   1.0000   1.0000   1.0000   1.0000   1.0000   1.0000   1.0000
     1.0000   1.0000   1.0000   1.0000   1.0000   1.0000   1.0000   1.0000
     1.0000   1.0000   1.0000   1.0000   1.0000   1.0000   1.0000   1.0000
     1.0000   1.0000   1.0000   1.0000   1.0000   1.0000   1.0000   1.0000
     1.0000   1.0000   1.0000   1.0000   1.0000   1.0000   1.0000   1.0000
     1.0000   1.0000   1.0000   1.0000   1.0000   1.0000   1.0000   1.0000
     1.0000   1.0000   1.0000   1.0000   1.0000   1.0000   1.0000   1.0000
     1.0000   1.0000   1.0000   1.0000   1.0000   1.0000   1.0000   1.0000
     1.0000   1.0000   1.0000   1.0000   1.0000   1.0000   1.0000   1.0000
     1.0000   1.0000   1.0000   1.0000   1.0000   1.0000   1.0000   1.0000
     1.0000   1.0000   1.0000   1.0000   1.0000   1.0000   1.0000   1.0000
     1.0000   1.0000   1.0000   1.0000   1.0000   1.0000   1.0000   1.0000
     1.0000   1.0000   1.0000   1.0000   1.0000   1.0000   1.0000   1.0000
     1.0000   1.0000   1.0000   1.0000   1.0000   1.0000   1.0000   1.0000
     1.0000   1.0000   1.0000   1.0000   1.0000   1.0000   1.0000   1.0000
     1.0000   1.0000   1.0000   1.0000   1.0000   1.0000   1.0000   1.0000
     1.0000   1.0000   1.0000   1.0000   1.0000   1.0000   1.0000   1.0000
     1.0000   1.0000   1.0000   1.0000   1.0000   1.0000   1.0000   1.0000
     1.0000   1.0000   1.0000   1.0000   1.0000   1.0000   1.0000   1.0000
     1.0000   1.0000   1.0000   1.0000   1.0000   1.0000   1.0000   1.0000
     1.0000   1.0000   1.0000   1.0000   1.0000   1.0000   1.0000   1.0000
     1.0000   1.0000   1.0000   1.0000   1.0000   1.0000   1.0000   1.0000
     1.0000   1.0000   1.0000   1.0000   1.0000   1.0000   1.0000   1.0000
     1.0000   1.0000   1.0000   1.0000   1.0000   1.0000   1.0000   1.0000
     1.0000   1.0000   1.0000   1.0000   1.0000   1.0000   1.0000   1.0000
     1.0000   1.0000   1.0000   1.0000   1.0000   1.0000   1.0000   1.0000
     1.0000   1.0000   1.0000   1.0000   1.0000   1.0000   1.0000   1.0000
     1.0000   1.0000   1.0000   1.0000   1.0000   1.0000   1.0000   1.0000
     1.0000   1.0000   1.0000   1.0000   1.0000   1.0000   1.0000   1.0000
     1.0000   1.0000   1.0000   1.0000   1.0000   1.0000   1.0000   1.0000
     1.0000   1.0000   1.0000   1.0000   1.0000   1.0000   1.0000   1.0000
     1.0000   1.0000   1.0000   1.0000   1.0000   1.0000   1.0000   1.0000
     1.0000   1.0000   1.0000   1.0000   1.0000   1.0000   1.0000   1.0000
     1.0000   1.0000   1.0000   1.0000   1.0000   1.0000   1.0000   1.0000
     1.0000   1.0000   1.0000   1.0000   1.0000   1.0000   1.0000   1.0000
     1.0000   1.0000   1.0000   1.0000   1.0000   1.0000   1.0000   1.0000
     1.0000   1.0000   1.0000   1.0000   1.0000   1.0000   1.0000   1.0000
     1.0000   1.0000   1.0000   1.0000   1.0000   1.0000   1.0000   1.0000
     1.0000   1.0000   1.0000   1.0000   1.0000   1.0000   1.0000   1.0000
     1.0000   1.0000   1.0000   1.0000   1.0000   1.0000   1.0000   1.0000
     1.0000   1.0000   1.0000   1.0000   1.0000   1.0000   1.0000   1.0000
     1.0000   1.0000   1.0000   1.0000   1.0000   1.0000   1.0000   1.0000
     1.0000   1.0000   1.0000   1.0000   1.0000   1.0000   1.0000   1.0000
     1.0000   1.0000   1.0000   1.0000   1.0000   1.0000   1.0000   1.0000
     1.0000   1.0000   1.0000   1.0000   1.0000   1.0000   1.0000   1.0000
     1.0000   1.0000   1.0000   1.0000   1.0000   1.0000   1.0000   1.0000
     1.0000   1.0000   1.0000   1.0000   1.0000   1.0000   1.0000   1.0000
     1.0000   1.0000   1.0000   1.0000   1.0000   1.0000   1.0000   1.0000
     1.0000   1.0000   1.0000   1.0000   1.0000   1.0000   1.0000   1.0000
     1.0000   1.0000   1.0000   1.0000   1.0000   1.0000   1.0000   1.0000
     1.0000   1.0000   1.0000   1.0000   1.0000   1.0000   1.0000   1.0000
     1.0000   1.0000   1.0000   1.0000   1.0000   1.0000   1.0000   1.0000
     1.0000   1.0000   1.0000   1.0000   1.0000   1.0000   1.0000   1.0000
     1.0000   1.0000   1.0000   1.0000   1.0000   1.0000   1.0000   1.0000
     1.0000   1.0000   1.0000   1.0000   1.0000   1.0000   1.0000   1.0000
     1.0000   1.0000   1.0000   1.0000   1.0000   1.0000   1.0000   1.0000
     1.0000   1.0000   1.0000   1.0000   1.0000   1.0000   1.0000   1.0000
     1.0000   1.0000   1.0000   1.0000   1.0000   1.0000   1.0000   1.0000
     1.0000   1.0000   1.0000   1.0000   1.0000   1.0000   1.0000   1.0000
     1.0000   1.0000   1.0000   1.0000   1.0000   1.0000   1.0000   1.0000
     1.0000   1.0000   1.0000   1.0000   1.0000   1.0000   1.0000   1.0000
     1.0000   1.0000   1.0000   1.0000   1.0000   1.0000   1.0000   1.0000
     1.0000   1.0000   1.0000   1.0000   1.0000   1.0000   1.0000   1.0000
     1.0000   1.0000   1.0000   1.0000   1.0000   1.0000   1.0000   1.0000
     1.0000   1.0000   1.0000   1.0000   1.0000   1.0000   1.0000   1.0000
     1.0000   1.0000   1.0000   1.0000   1.0000   1.0000   1.0000   1.0000
     1.0000   1.0000   1.0000   1.0000   1.0000   1.0000   1.0000   1.0000
     1.0000   1.0000   1.0000   1.0000   1.0000   1.0000   1.0000   1.0000
     1.0000   1.0000   1.0000   1.0000   1.0000   1.0000   1.0000   1.0000
     1.0000   1.0000   1.0000   1.0000   1.0000   1.0000   1.0000   1.0000
     1.0000   1.0000   1.0000   1.0000   1.0000   1.0000   1.0000   1.0000
     1.0000   1.0000   1.0000   1.0000   1.0000   1.0000   1.0000   1.0000
     1.0000   1.0000   1.0000   1.0000   1.0000   1.0000   1.0000   1.0000
     1.0000   1.0000   1.0000   1.0000   1.0000   1.0000   1.0000   1.0000
     1.0000   1.0000   1.0000   1.0000   1.0000   1.0000   1.0000   1.0000
     1.0000   1.0000   1.0000   1.0000   1.0000   1.0000   1.0000   1.0000
     1.0000   1.0000   1.0000   1.0000   1.0000   1.0000   1.0000   1.0000
     1.0000   1.0000   1.0000   1.0000   1.0000   1.0000   1.0000   1.0000
     1.0000   1.0000   1.0000   1.0000   1.0000   1.0000   1.0000   1.0000
     1.0000   1.0000   1.0000   1.0000   1.0000   1.0000   1.0000   1.0000
     1.0000   1.0000   1.0000   1.0000   1.0000   1.0000   1.0000   1.0000
     1.0000   1.0000   1.0000   1.0000   1.0000   1.0000   1.0000   1.0000
     1.0000   1.0000   1.0000   0.0000   0.0000

     highest occupied, lowest unoccupied level (ev):     9.7019   10.7077

!    total energy              =  -13886.71960280 Ry
     Harris-Foulkes estimate   =  -13886.71960280 Ry
     estimated scf accuracy    <          6.4E-09 Ry

     The total energy is the sum of the following terms:

     one-electron contribution =    3676.81975636 Ry
     hartree contribution      =    1732.56122866 Ry
     xc contribution           =   -4367.16635627 Ry
     ewald contribution        =  -14928.93423155 Ry

     total magnetization       =     2.00 Bohr mag/cell
     absolute magnetization    =     2.21 Bohr mag/cell

     convergence has been achieved in  22 iterations


     Computing stress (Cartesian axis) and pressure

          total   stress  (Ry/bohr**3)                   (kbar)     P=  -19.22
  -0.00013015   0.00000184  -0.00000000        -19.15      0.27     -0.00
   0.00000184  -0.00012856  -0.00000000          0.27    -18.91     -0.00
  -0.00000000  -0.00000000  -0.00013325         -0.00     -0.00    -19.60

     kinetic stress (kbar)   7817.33      0.17      0.00
                                0.17   7821.83      0.00
                                0.00      0.00   7821.26

     local   stress (kbar)  -3645.14     -8.12      0.00
                               -8.12  -3541.22      0.00
                                0.00      0.00  -3520.12

     nonloc. stress (kbar)   3990.93      0.37     -0.00
                                0.37   4007.24     -0.00
                               -0.00     -0.00   4006.35

     hartree stress (kbar)    864.98      1.93     -0.00
                                1.93    816.96     -0.00
                               -0.00     -0.00    811.86

     exc-cor stress (kbar)  -1939.93      0.01     -0.00
                                0.01  -1940.88     -0.00
                               -0.00     -0.00  -1940.87

     corecor stress (kbar)      0.00      0.00      0.00
                                0.00      0.00      0.00
                                0.00      0.00      0.00

     ewald   stress (kbar)  -7107.32      5.91     -0.00
                                5.91  -7182.83     -0.00
                               -0.00     -0.00  -7198.08

     hubbard stress (kbar)      0.00      0.00      0.00
                                0.00      0.00      0.00
                                0.00      0.00      0.00

     london  stress (kbar)      0.00      0.00      0.00
                                0.00      0.00      0.00
                                0.00      0.00      0.00

     DFT-D3  stress (kbar)      0.00      0.00      0.00
                                0.00      0.00      0.00
                                0.00      0.00      0.00

     XDM     stress (kbar)      0.00      0.00      0.00
                                0.00      0.00      0.00
                                0.00      0.00      0.00

     dft-nl  stress (kbar)      0.00      0.00      0.00
                                0.00      0.00      0.00
                                0.00      0.00      0.00

     TS-vdW  stress (kbar)      0.00      0.00      0.00
                                0.00      0.00      0.00
                                0.00      0.00      0.00



     Writing output data file pwscf.save
 
     init_run     :    167.30s CPU    172.41s WALL (       1 calls)
     electrons    :   4842.29s CPU   4943.28s WALL (       1 calls)
     stress       :    244.56s CPU    246.05s WALL (       1 calls)

     Called by init_run:
     wfcinit      :    161.45s CPU    165.24s WALL (       1 calls)
     wfcinit:atom :      0.15s CPU      0.28s WALL (       1 calls)
     wfcinit:wfcr :    160.69s CPU    163.81s WALL (       1 calls)
     potinit      :      0.46s CPU      0.47s WALL (       1 calls)

     Called by electrons:
     c_bands      :   4777.22s CPU   4876.06s WALL (      22 calls)
     sum_band     :     60.94s CPU     62.77s WALL (      22 calls)
     v_of_rho     :      1.77s CPU      1.81s WALL (      23 calls)
     v_h          :      0.09s CPU      0.09s WALL (      23 calls)
     v_xc         :      1.69s CPU      1.72s WALL (      23 calls)
     mix_rho      :      0.55s CPU      0.60s WALL (      22 calls)

     Called by c_bands:
     init_us_2    :      1.40s CPU      2.37s WALL (      45 calls)
     cegterg      :   4599.31s CPU   4689.74s WALL (      22 calls)

     Called by sum_band:

     Called by *egterg:
     h_psi        :    831.91s CPU    845.69s WALL (     109 calls)
     g_psi        :      1.39s CPU      1.41s WALL (      86 calls)
     cdiaghg      :   2716.71s CPU   2777.22s WALL (     108 calls)
     cegterg:over :    504.01s CPU    506.93s WALL (      86 calls)
     cegterg:upda :    364.91s CPU    368.61s WALL (      86 calls)
     cegterg:last :    194.12s CPU    195.76s WALL (      22 calls)
     cdiaghg:chol :    117.40s CPU    120.74s WALL (     108 calls)
     cdiaghg:inve :    105.70s CPU    108.47s WALL (     108 calls)
     cdiaghg:para :    228.29s CPU    230.69s WALL (     216 calls)

     Called by h_psi:
     h_psi:pot    :    828.99s CPU    842.22s WALL (     109 calls)
     h_psi:calbec :    258.28s CPU    260.79s WALL (     109 calls)
     vloc_psi     :    327.98s CPU    331.10s WALL (     109 calls)
     add_vuspsi   :    242.73s CPU    250.33s WALL (     109 calls)

     General routines
     calbec       :    262.57s CPU    265.10s WALL (     110 calls)
     fft          :      3.84s CPU      5.12s WALL (     446 calls)
     ffts         :      0.17s CPU      0.20s WALL (      44 calls)
     fftw         :    367.08s CPU    370.89s WALL (  415002 calls)
 
     Parallel routines
     fft_scatt_xy :     24.58s CPU     24.80s WALL (  415492 calls)
     fft_scatt_yz :    225.26s CPU    228.99s WALL (  415492 calls)
 
     PWSCF        :     1h28m CPU        1h31m WALL

 
   This run was terminated on:   5: 2:19  30Nov2019            

=------------------------------------------------------------------------------=
   JOB DONE.
=------------------------------------------------------------------------------=
