
     Program PWSCF v.6.2.2 starts on 19Jun2018 at  5:14:42 

     This program is part of the open-source Quantum ESPRESSO suite
     for quantum simulation of materials; please cite
         "P. Giannozzi et al., J. Phys.:Condens. Matter 21 395502 (2009);
         "P. Giannozzi et al., J. Phys.:Condens. Matter 29 465901 (2017);
          URL http://www.quantum-espresso.org", 
     in publications or presentations arising from this work. More details at
     http://www.quantum-espresso.org/quote

     Parallel version (MPI & OpenMP), running on     384 processor cores
     Number of MPI processes:               384
     Threads/MPI process:                     1

     MPI processes distributed on    32 nodes
     K-points division:     npool     =       2
     R & G space division:  proc/nbgrp/npool/nimage =     192
     Waiting for input...
     Reading input from standard input

     Current dimensions of program PWSCF are:
     Max number of different atomic species (ntypx) = 10
     Max number of k-points (npk) =  40000
     Max angular momentum in pseudopotentials (lmaxx) =  3

     IMPORTANT: XC functional enforced from input :
     Exchange-correlation      = PBE ( 1  4  3  4 0 0)
     Any further DFT definition will be discarded
     Please, verify this is what you really want


     Subspace diagonalization in iterative solution of the eigenvalue problem:
     one sub-group per band group will be used
     scalapack distributed-memory algorithm (size of sub-group:  9*  9 procs)

 
     Parallelization info
     --------------------
     sticks:   dense  smooth     PW     G-vecs:    dense   smooth      PW
     Min         128     128     32                18184    18184    2270
     Max         129     129     33                18197    18197    2276
     Sum       24691   24691   6175              3492387  3492387  436569
 


     bravais-lattice index     =            0
     lattice parameter (alat)  =      38.3086  a.u.
     unit-cell volume          =  102202.9134 (a.u.)^3
     number of atoms/cell      =         1438
     number of atomic types    =            2
     number of electrons       =      5752.00 (up:2877.00, down:2875.00)
     number of Kohn-Sham states=         2877
     kinetic-energy cutoff     =      40.0000  Ry
     charge density cutoff     =     160.0000  Ry
     convergence threshold     =      1.0E-08
     mixing beta               =       0.7000
     number of iterations used =            8  plain     mixing
     Exchange-correlation      = PBE ( 1  4  3  4 0 0)

     celldm(1)=  38.308591  celldm(2)=   0.000000  celldm(3)=   0.000000
     celldm(4)=   0.000000  celldm(5)=   0.000000  celldm(6)=   0.000000

     crystal axes: (cart. coord. in units of alat)
               a(1) = (   1.000000   0.000000   0.000000 )  
               a(2) = (   0.000000   1.322608   0.000000 )  
               a(3) = (   0.000000   0.000000   1.374497 )  

     reciprocal axes: (cart. coord. in units 2 pi/alat)
               b(1) = (  1.000000  0.000000  0.000000 )  
               b(2) = (  0.000000  0.756082  0.000000 )  
               b(3) = (  0.000000  0.000000  0.727539 )  


     PseudoPot. # 1 for C  read from file:
     /home/mahe/pseudo/C.pbe-tm-gipaw.UPF
     MD5 check sum: 6e4a9b9bc4429ee737bc22471ffa2923
     Pseudo is Norm-conserving, Zval =  4.0
     Generated by new atomic code, or converted to UPF format
     Using radial grid of 1073 points,  1 beta functions with: 
                l(1) =   0

     PseudoPot. # 2 for Si read from file:
     /home/mahe/pseudo/Si.pbe-tm-gipaw.UPF
     MD5 check sum: 744ed8b2dc623e0d56f5dfff7afbe95f
     Pseudo is Norm-conserving, Zval =  4.0
     Generated by new atomic code, or converted to UPF format
     Using radial grid of 1141 points,  2 beta functions with: 
                l(1) =   0
                l(2) =   1

     atomic species   valence    mass     pseudopotential
        C              4.00    12.01100     C ( 1.00)
        Si             4.00    28.08500     Si( 1.00)

     Starting magnetic structure 
     atomic species   magnetization
        C            0.000
        Si           0.000

     No symmetry found


                                    s                        frac. trans.

      isym =  1     identity                                     

 cryst.   s( 1) = (     1          0          0      )
                  (     0          1          0      )
                  (     0          0          1      )

 cart.    s( 1) = (  1.0000000  0.0000000  0.0000000 )
                  (  0.0000000  1.0000000  0.0000000 )
                  (  0.0000000  0.0000000  1.0000000 )


   Cartesian axes

     site n.     atom                  positions (alat units)
         1           C   tau(   1) = (   0.0937600   0.0000000   0.0000000  )
         2           C   tau(   2) = (   0.0937800   0.1322872   0.0763670  )
         3           C   tau(   3) = (   0.2190800   0.0881518   0.0000000  )
         4           C   tau(   4) = (   0.2191600   0.2204390   0.0763533  )
         5           C   tau(   5) = (   0.3437600   0.0000000   0.0000000  )
         6           C   tau(   6) = (   0.3437600   0.1322740   0.0763533  )
         7           C   tau(   7) = (   0.4691000   0.0441090   0.0763533  )
         8           C   tau(   8) = (   0.4691000   0.1763168   0.0000000  )
         9           C   tau(   9) = (   0.5937600   0.0000000   0.0000000  )
        10           C   tau(  10) = (   0.5937800   0.1322872   0.0763670  )
        11           C   tau(  11) = (   0.7190800   0.0881650   0.0000000  )
        12           C   tau(  12) = (   0.7191600   0.2204522   0.0763670  )
        13           C   tau(  13) = (   0.8437600   0.0000000   0.0000000  )
        14           C   tau(  14) = (   0.8437600   0.1322740   0.0763670  )
        15           C   tau(  15) = (   0.9691000   0.0441222   0.0763670  )
        16           C   tau(  16) = (   0.9691000   0.1763300   0.0000000  )
        17           C   tau(  17) = (   0.0937900   0.2645480   0.0000000  )
        18           C   tau(  18) = (   0.0937900   0.3967426   0.0763670  )
        19           C   tau(  19) = (   0.2191000   0.3527130   0.0000000  )
        20           C   tau(  20) = (   0.2191000   0.4849737   0.0763533  )
        21           C   tau(  21) = (   0.3437900   0.2645480   0.0000000  )
        22           C   tau(  22) = (   0.3437900   0.3967426   0.0763533  )
        23           C   tau(  23) = (   0.4691000   0.3085908   0.0763533  )
        24           C   tau(  24) = (   0.4691600   0.4408516   0.0000000  )
        25           C   tau(  25) = (   0.5937900   0.2645612   0.0000000  )
        26           C   tau(  26) = (   0.5937900   0.3967558   0.0763808  )
        27           C   tau(  27) = (   0.7191000   0.3527130   0.0000000  )
        28           C   tau(  28) = (   0.7191000   0.4849870   0.0763808  )
        29           C   tau(  29) = (   0.8437900   0.2645612   0.0000000  )
        30           C   tau(  30) = (   0.8437900   0.3967558   0.0763670  )
        31           C   tau(  31) = (   0.9691000   0.3085908   0.0763670  )
        32           C   tau(  32) = (   0.9691600   0.4408648   0.0000000  )
        33           C   tau(  33) = (   0.0937600   0.5290298   0.0000000  )
        34           C   tau(  34) = (   0.0937600   0.6613038   0.0763670  )
        35           C   tau(  35) = (   0.2191000   0.6171816   0.0000000  )
        36           C   tau(  36) = (   0.2190900   0.7494688   0.0763670  )
        37           C   tau(  37) = (   0.3437800   0.5290166   0.0000000  )
        38           C   tau(  38) = (   0.3437700   0.6613038   0.0763670  )
        39           C   tau(  39) = (   0.4690900   0.5731388   0.0763533  )
        40           C   tau(  40) = (   0.4691100   0.7054127   0.0000000  )
        41           C   tau(  41) = (   0.5937600   0.5290298   0.0000000  )
        42           C   tau(  42) = (   0.5937700   0.6612906   0.0764358  )
        43           C   tau(  43) = (   0.7190900   0.6171816   0.0000000  )
        44           C   tau(  44) = (   0.7190800   0.7494556   0.0763670  )
        45           C   tau(  45) = (   0.8437700   0.5290166   0.0000000  )
        46           C   tau(  46) = (   0.8437500   0.6613038   0.0763670  )
        47           C   tau(  47) = (   0.9690800   0.5731388   0.0763670  )
        48           C   tau(  48) = (   0.9690900   0.7054260   0.0000000  )
        49           C   tau(  49) = (   0.0937800   0.7935910   0.0000000  )
        50           C   tau(  50) = (   0.0937900   0.9258517   0.0763670  )
        51           C   tau(  51) = (   0.2191600   0.8817428   0.0000000  )
        52           C   tau(  52) = (   0.2191100   1.0140168   0.0763670  )
        53           C   tau(  53) = (   0.3437800   0.7935778   0.0000000  )
        54           C   tau(  54) = (   0.3438000   0.9258650   0.0763670  )
        55           C   tau(  55) = (   0.4691100   0.8376206   0.0763808  )
        56           C   tau(  56) = (   0.4691100   0.9698813   0.0000000  )
        57           C   tau(  57) = (   0.5937800   0.7935645   0.0000000  )
        58           C   tau(  58) = (   0.5937900   0.9258385   0.0763808  )
        59           C   tau(  59) = (   0.7191500   0.8817428   0.0000000  )
        60           C   tau(  60) = (   0.7191000   1.0140035   0.0763670  )
        61           C   tau(  61) = (   0.8437600   0.7935778   0.0000000  )
        62           C   tau(  62) = (   0.8437900   0.9258650   0.0763670  )
        63           C   tau(  63) = (   0.9691000   0.8376338   0.0763670  )
        64           C   tau(  64) = (   0.9691000   0.9698946   0.0000000  )
        65           C   tau(  65) = (   0.0937900   1.0580464   0.0000000  )
        66           C   tau(  66) = (   0.0937600   1.1903336   0.0763670  )
        67           C   tau(  67) = (   0.2191000   1.1462775   0.0000000  )
        68           C   tau(  68) = (   0.2191000   1.2784854   0.0763533  )
        69           C   tau(  69) = (   0.3437900   1.0580464   0.0000000  )
        70           C   tau(  70) = (   0.3437800   1.1903203   0.0763670  )
        71           C   tau(  71) = (   0.4691600   1.1021553   0.0763670  )
        72           C   tau(  72) = (   0.4690900   1.2344425   0.0000000  )
        73           C   tau(  73) = (   0.5937900   1.0580331   0.0000000  )
        74           C   tau(  74) = (   0.5937600   1.1903336   0.0763670  )
        75           C   tau(  75) = (   0.7191000   1.1462775   0.0000000  )
        76           C   tau(  76) = (   0.7191000   1.2784854   0.0763670  )
        77           C   tau(  77) = (   0.8437800   1.0580464   0.0000000  )
        78           C   tau(  78) = (   0.8437700   1.1903203   0.0763670  )
        79           C   tau(  79) = (   0.9691600   1.1021553   0.0763670  )
        80           C   tau(  80) = (   0.9690800   1.2344425   0.0000000  )
        81           C   tau(  81) = (   0.0937600   0.0000000   0.1527203  )
        82           C   tau(  82) = (   0.0937800   0.1322872   0.2290874  )
        83           C   tau(  83) = (   0.2190800   0.0881518   0.1527203  )
        84           C   tau(  84) = (   0.2191600   0.2204390   0.2290874  )
        85           C   tau(  85) = (   0.3437600   0.0000000   0.1527203  )
        86           C   tau(  86) = (   0.3437600   0.1322608   0.2290736  )
        87           C   tau(  87) = (   0.4691000   0.0441222   0.2290736  )
        88           C   tau(  88) = (   0.4691000   0.1763168   0.1527203  )
        89           C   tau(  89) = (   0.5937600   0.0000000   0.1527341  )
        90           C   tau(  90) = (   0.5937800   0.1323004   0.2291011  )
        91           C   tau(  91) = (   0.7190800   0.0881650   0.1527341  )
        92           C   tau(  92) = (   0.7191600   0.2204655   0.2291011  )
        93           C   tau(  93) = (   0.8437600   0.0000000   0.1527203  )
        94           C   tau(  94) = (   0.8437600   0.1322740   0.2290874  )
        95           C   tau(  95) = (   0.9691000   0.0441222   0.2290874  )
        96           C   tau(  96) = (   0.9691000   0.1763300   0.1527203  )
        97           C   tau(  97) = (   0.0937900   0.2645480   0.1527203  )
        98           C   tau(  98) = (   0.0937900   0.3967426   0.2290874  )
        99           C   tau(  99) = (   0.2191000   0.3527130   0.1527203  )
       100           C   tau( 100) = (   0.2191000   0.4849737   0.2290736  )
       101           C   tau( 101) = (   0.3437900   0.2645480   0.1527203  )
       102           C   tau( 102) = (   0.3437800   0.3967426   0.2290599  )
       103           C   tau( 103) = (   0.4691000   0.3085776   0.2290599  )
       104           C   tau( 104) = (   0.4691600   0.4408516   0.1526929  )
       105           C   tau( 105) = (   0.5937900   0.2645612   0.1527341  )
       106           C   tau( 106) = (   0.5937900   0.3967690   0.2291286  )
       107           C   tau( 107) = (   0.7191000   0.3527262   0.1527341  )
       108           C   tau( 108) = (   0.7191000   0.4849870   0.2291424  )
       109           C   tau( 109) = (   0.8437900   0.2645612   0.1527203  )
       110           C   tau( 110) = (   0.8437900   0.3967558   0.2290874  )
       111           C   tau( 111) = (   0.9691000   0.3085908   0.2290874  )
       112           C   tau( 112) = (   0.9691600   0.4408648   0.1527203  )
       113           C   tau( 113) = (   0.0937600   0.5290298   0.1527203  )
       114           C   tau( 114) = (   0.0937700   0.6613038   0.2290874  )
       115           C   tau( 115) = (   0.2191100   0.6171948   0.1527341  )
       116           C   tau( 116) = (   0.2191100   0.7494688   0.2291149  )
       117           C   tau( 117) = (   0.3437800   0.5290166   0.1527203  )
       118           C   tau( 118) = (   0.3437900   0.6613038   0.2291149  )
       119           C   tau( 119) = (   0.4691000   0.5731123   0.2290462  )
       120           C   tau( 120) = (   0.4691300   0.7054127   0.1527203  )
       121           C   tau( 121) = (   0.5937600   0.5290430   0.1527891  )
       122           C   tau( 122) = (   0.5937800   0.6612773   0.2294035  )
       123           C   tau( 123) = (   0.7190900   0.6171816   0.1527753  )
       124           C   tau( 124) = (   0.7190700   0.7494556   0.2291149  )
       125           C   tau( 125) = (   0.8437700   0.5290166   0.1527341  )
       126           C   tau( 126) = (   0.8437400   0.6612906   0.2291011  )
       127           C   tau( 127) = (   0.9690800   0.5731388   0.2290874  )
       128           C   tau( 128) = (   0.9690900   0.7054260   0.1527341  )
       129           C   tau( 129) = (   0.0937800   0.7935910   0.1527341  )
       130           C   tau( 130) = (   0.0938000   0.9258517   0.2290874  )
       131           C   tau( 131) = (   0.2191700   0.8817428   0.1527341  )
       132           C   tau( 132) = (   0.2191100   1.0140035   0.2290874  )
       133           C   tau( 133) = (   0.3437900   0.7935778   0.1527616  )
       134           C   tau( 134) = (   0.3438100   0.9258385   0.2291149  )
       135           C   tau( 135) = (   0.4691200   0.8376074   0.2291699  )
       136           C   tau( 136) = (   0.4691100   0.9698813   0.1527616  )
       137           C   tau( 137) = (   0.5937800   0.7935513   0.1528028  )
       138           C   tau( 138) = (   0.5937900   0.9258121   0.2291699  )
       139           C   tau( 139) = (   0.7191500   0.8817428   0.1527341  )
       140           C   tau( 140) = (   0.7191000   1.0140035   0.2290874  )
       141           C   tau( 141) = (   0.8437600   0.7935645   0.1527341  )
       142           C   tau( 142) = (   0.8437800   0.9258517   0.2290874  )
       143           C   tau( 143) = (   0.9691100   0.8376206   0.2290874  )
       144           C   tau( 144) = (   0.9691000   0.9698946   0.1527203  )
       145           C   tau( 145) = (   0.0937900   1.0580464   0.1527203  )
       146           C   tau( 146) = (   0.0937600   1.1903336   0.2290874  )
       147           C   tau( 147) = (   0.2191000   1.1462775   0.1527203  )
       148           C   tau( 148) = (   0.2191000   1.2784854   0.2290874  )
       149           C   tau( 149) = (   0.3437900   1.0580464   0.1527341  )
       150           C   tau( 150) = (   0.3437800   1.1903071   0.2290874  )
       151           C   tau( 151) = (   0.4691700   1.1021289   0.2291149  )
       152           C   tau( 152) = (   0.4690900   1.2344293   0.1527203  )
       153           C   tau( 153) = (   0.5937900   1.0580331   0.1527478  )
       154           C   tau( 154) = (   0.5937700   1.1903203   0.2291149  )
       155           C   tau( 155) = (   0.7191000   1.1462775   0.1527203  )
       156           C   tau( 156) = (   0.7191000   1.2784854   0.2290874  )
       157           C   tau( 157) = (   0.8437800   1.0580464   0.1527203  )
       158           C   tau( 158) = (   0.8437700   1.1903203   0.2290874  )
       159           C   tau( 159) = (   0.9691600   1.1021553   0.2290874  )
       160           C   tau( 160) = (   0.9690800   1.2344425   0.1527203  )
       161           C   tau( 161) = (   0.0937600   0.0000000   0.3054407  )
       162           C   tau( 162) = (   0.0937800   0.1322872   0.3818077  )
       163           C   tau( 163) = (   0.2190900   0.0881650   0.3054407  )
       164           C   tau( 164) = (   0.2191700   0.2204522   0.3818215  )
       165           C   tau( 165) = (   0.3437700   0.0000000   0.3054407  )
       166           C   tau( 166) = (   0.3437700   0.1322872   0.3818077  )
       167           C   tau( 167) = (   0.4691000   0.0441222   0.3817940  )
       168           C   tau( 168) = (   0.4691100   0.1763168   0.3054270  )
       169           C   tau( 169) = (   0.5937600   0.0000000   0.3054819  )
       170           C   tau( 170) = (   0.5937800   0.1323666   0.3818490  )
       171           C   tau( 171) = (   0.7190800   0.0881782   0.3054544  )
       172           C   tau( 172) = (   0.7191500   0.2204919   0.3818352  )
       173           C   tau( 173) = (   0.8437600   0.0000000   0.3054544  )
       174           C   tau( 174) = (   0.8437600   0.1322872   0.3818077  )
       175           C   tau( 175) = (   0.9690900   0.0441222   0.3818077  )
       176           C   tau( 176) = (   0.9691000   0.1763300   0.3054407  )
       177           C   tau( 177) = (   0.0937900   0.2645480   0.3054407  )
       178           C   tau( 178) = (   0.0937800   0.3967426   0.3818215  )
       179           C   tau( 179) = (   0.2191000   0.3526998   0.3054407  )
       180           C   tau( 180) = (   0.2190700   0.4849473   0.3817528  )
       181           C   tau( 181) = (   0.3437900   0.2645480   0.3054407  )
       182           C   tau( 182) = (   0.3437900   0.3967294   0.3817665  )
       183           C   tau( 183) = (   0.4691100   0.3085643   0.3817528  )
       184           C   tau( 184) = (   0.4691600   0.4407986   0.3053445  )
       185           C   tau( 185) = (   0.5937900   0.2646009   0.3054819  )
       186           C   tau( 186) = (   0.5937900   0.3968352   0.3819040  )
       187           C   tau( 187) = (   0.7191000   0.3527527   0.3054819  )
       188           C   tau( 188) = (   0.7190900   0.4850399   0.3819452  )
       189           C   tau( 189) = (   0.8437900   0.2645612   0.3054407  )
       190           C   tau( 190) = (   0.8437800   0.3967690   0.3818077  )
       191           C   tau( 191) = (   0.9691000   0.3086040   0.3818077  )
       192           C   tau( 192) = (   0.9691600   0.4408648   0.3054544  )
       193           C   tau( 193) = (   0.0937600   0.5290430   0.3054407  )
       194           C   tau( 194) = (   0.0937300   0.6613170   0.3817803  )
       195           C   tau( 195) = (   0.2191200   0.6171948   0.3054544  )
       196           C   tau( 196) = (   0.2191400   0.7494556   0.3818627  )
       197           C   tau( 197) = (   0.3437800   0.5290033   0.3054132  )
       198           C   tau( 198) = (   0.3438200   0.6612906   0.3818902  )
       199           C   tau( 199) = (   0.4691000   0.5730197   0.3816840  )
       200           C   tau( 200) = (   0.4691800   0.7053598   0.3053857  )
       201           C   tau( 201) = (   0.5937600   0.5290430   0.3056056  )
       202           C   tau( 202) = (   0.5938300   0.6612773   0.3826050  )
       203           C   tau( 203) = (   0.7191100   0.6171816   0.3055644  )
       204           C   tau( 204) = (   0.7190700   0.7494688   0.3818352  )
       205           C   tau( 205) = (   0.8437700   0.5290166   0.3054682  )
       206           C   tau( 206) = (   0.8437300   0.6613038   0.3818352  )
       207           C   tau( 207) = (   0.9690600   0.5731520   0.3818077  )
       208           C   tau( 208) = (   0.9690700   0.7054260   0.3054407  )
       209           C   tau( 209) = (   0.0938000   0.7935778   0.3054682  )
       210           C   tau( 210) = (   0.0938100   0.9258385   0.3818215  )
       211           C   tau( 211) = (   0.2192000   0.8817296   0.3054682  )
       212           C   tau( 212) = (   0.2191300   1.0139771   0.3818215  )
       213           C   tau( 213) = (   0.3438300   0.7935513   0.3055369  )
       214           C   tau( 214) = (   0.3438500   0.9257988   0.3818765  )
       215           C   tau( 215) = (   0.4691700   0.8375412   0.3820002  )
       216           C   tau( 216) = (   0.4691300   0.9698549   0.3055094  )
       217           C   tau( 217) = (   0.5937700   0.7935116   0.3056331  )
       218           C   tau( 218) = (   0.5937800   0.9257592   0.3819727  )
       219           C   tau( 219) = (   0.7191400   0.8817296   0.3054682  )
       220           C   tau( 220) = (   0.7190900   1.0139903   0.3818352  )
       221           C   tau( 221) = (   0.8437500   0.7935645   0.3054544  )
       222           C   tau( 222) = (   0.8437700   0.9258650   0.3818077  )
       223           C   tau( 223) = (   0.9691000   0.8376338   0.3817940  )
       224           C   tau( 224) = (   0.9691100   0.9698946   0.3054544  )
       225           C   tau( 225) = (   0.0938000   1.0580464   0.3054544  )
       226           C   tau( 226) = (   0.0937700   1.1903336   0.3818077  )
       227           C   tau( 227) = (   0.2191100   1.1462643   0.3054407  )
       228           C   tau( 228) = (   0.2191000   1.2784854   0.3818077  )
       229           C   tau( 229) = (   0.3438100   1.0580199   0.3054682  )
       230           C   tau( 230) = (   0.3437900   1.1903203   0.3818077  )
       231           C   tau( 231) = (   0.4691900   1.1021950   0.3818077  )
       232           C   tau( 232) = (   0.4690900   1.2344558   0.3054407  )
       233           C   tau( 233) = (   0.5937900   1.0579935   0.3055232  )
       234           C   tau( 234) = (   0.5937700   1.1902674   0.3818627  )
       235           C   tau( 235) = (   0.7191000   1.1462643   0.3054544  )
       236           C   tau( 236) = (   0.7190900   1.2784721   0.3818215  )
       237           C   tau( 237) = (   0.8437800   1.0580464   0.3054544  )
       238           C   tau( 238) = (   0.8437700   1.1903203   0.3818077  )
       239           C   tau( 239) = (   0.9691500   1.1021553   0.3818077  )
       240           C   tau( 240) = (   0.9690800   1.2344425   0.3054407  )
       241           C   tau( 241) = (   0.0937600   0.0000000   0.4581610  )
       242           C   tau( 242) = (   0.0937800   0.1322872   0.5345281  )
       243           C   tau( 243) = (   0.2190900   0.0881650   0.4581748  )
       244           C   tau( 244) = (   0.2191900   0.2204787   0.5345418  )
       245           C   tau( 245) = (   0.3437700   0.0000132   0.4581610  )
       246           C   tau( 246) = (   0.3437800   0.1323137   0.5345418  )
       247           C   tau( 247) = (   0.4691000   0.0441619   0.5345281  )
       248           C   tau( 248) = (   0.4691200   0.1763168   0.4581336  )
       249           C   tau( 249) = (   0.5937600   0.0000132   0.4581885  )
       250           C   tau( 250) = (   0.5937700   0.1323533   0.5345418  )
       251           C   tau( 251) = (   0.7190800   0.0881650   0.4581748  )
       252           C   tau( 252) = (   0.7191400   0.2204655   0.5345418  )
       253           C   tau( 253) = (   0.8437600   0.0000000   0.4581610  )
       254           C   tau( 254) = (   0.8437600   0.1322740   0.5345281  )
       255           C   tau( 255) = (   0.9691000   0.0441222   0.5345281  )
       256           C   tau( 256) = (   0.9691000   0.1763300   0.4581610  )
       257           C   tau( 257) = (   0.0937900   0.2645612   0.4581748  )
       258           C   tau( 258) = (   0.0937500   0.3967161   0.5345281  )
       259           C   tau( 259) = (   0.2191200   0.3527130   0.4581748  )
       260           C   tau( 260) = (   0.2189100   0.4849341   0.5344319  )
       261           C   tau( 261) = (   0.3438200   0.2645744   0.4581748  )
       262           C   tau( 262) = (   0.3438500   0.3968219   0.5345556  )
       263           C   tau( 263) = (   0.4691700   0.3085511   0.5344181  )
       264           C   tau( 264) = (   0.4691900   0.4407854   0.4579549  )
       265           C   tau( 265) = (   0.5938000   0.2647728   0.4582847  )
       266           C   tau( 266) = (   0.5938500   0.3972981   0.5348855  )
       267           C   tau( 267) = (   0.7191100   0.3527923   0.4582160  )
       268           C   tau( 268) = (   0.7191200   0.4851589   0.5347205  )
       269           C   tau( 269) = (   0.8437700   0.2645744   0.4581610  )
       270           C   tau( 270) = (   0.8437500   0.3967823   0.5345418  )
       271           C   tau( 271) = (   0.9690800   0.3085908   0.5345281  )
       272           C   tau( 272) = (   0.9691200   0.4408516   0.4581748  )
       273           C   tau( 273) = (   0.0936600   0.5290033   0.4581336  )
       274           C   tau( 274) = (   0.0936900   0.6613038   0.5344731  )
       275           C   tau( 275) = (   0.2188900   0.6171155   0.4580648  )
       276           C   tau( 276) = (   0.2189400   0.7494423   0.5345556  )
       277           C   tau( 277) = (   0.3437300   0.5289504   0.4580786  )
       278           C   tau( 278) = (   0.3430800   0.6610260   0.5345693  )
       279           C   tau( 279) = (   0.4688500   0.5729536   0.5342120  )
       280           C   tau( 280) = (   0.4693900   0.7050160   0.4579549  )
       281           C   tau( 281) = (   0.5936900   0.5291885   0.4584909  )
       282           C   tau( 282) = (   0.5936200   0.6616080   0.5364799  )
       283           C   tau( 283) = (   0.7191300   0.6172345   0.4584497  )
       284           C   tau( 284) = (   0.7191200   0.7494820   0.5344869  )
       285           C   tau( 285) = (   0.8438000   0.5290298   0.4582023  )
       286           C   tau( 286) = (   0.8439300   0.6613435   0.5345693  )
       287           C   tau( 287) = (   0.9691000   0.5731388   0.5345281  )
       288           C   tau( 288) = (   0.9691100   0.7054392   0.4581336  )
       289           C   tau( 289) = (   0.0937600   0.7935910   0.4581473  )
       290           C   tau( 290) = (   0.0937500   0.9258650   0.5344869  )
       291           C   tau( 291) = (   0.2192400   0.8816899   0.4582023  )
       292           C   tau( 292) = (   0.2191200   1.0140035   0.5345143  )
       293           C   tau( 293) = (   0.3439300   0.7934587   0.4583672  )
       294           C   tau( 294) = (   0.3438500   0.9257988   0.5345831  )
       295           C   tau( 295) = (   0.4694300   0.8380306   0.5348030  )
       296           C   tau( 296) = (   0.4691700   0.9700136   0.4582023  )
       297           C   tau( 297) = (   0.5937500   0.7934455   0.4584497  )
       298           C   tau( 298) = (   0.5938500   0.9253095   0.5349542  )
       299           C   tau( 299) = (   0.7191300   0.8817163   0.4581885  )
       300           C   tau( 300) = (   0.7191100   1.0139242   0.5345968  )
       301           C   tau( 301) = (   0.8437800   0.7935910   0.4581473  )
       302           C   tau( 302) = (   0.8437500   0.9258385   0.5345556  )
       303           C   tau( 303) = (   0.9691100   0.8376470   0.5345006  )
       304           C   tau( 304) = (   0.9690800   0.9698946   0.4581610  )
       305           C   tau( 305) = (   0.0937900   1.0580464   0.4581610  )
       306           C   tau( 306) = (   0.0937600   1.1903336   0.5345281  )
       307           C   tau( 307) = (   0.2191100   1.1462643   0.4581610  )
       308           C   tau( 308) = (   0.2191000   1.2784854   0.5345281  )
       309           C   tau( 309) = (   0.3438100   1.0580464   0.4581748  )
       310           C   tau( 310) = (   0.3437800   1.1903336   0.5345281  )
       311           C   tau( 311) = (   0.4691700   1.1022215   0.5345418  )
       312           C   tau( 312) = (   0.4690900   1.2344690   0.4581610  )
       313           C   tau( 313) = (   0.5938100   1.0578480   0.4583260  )
       314           C   tau( 314) = (   0.5937600   1.1902939   0.5345556  )
       315           C   tau( 315) = (   0.7191000   1.1462378   0.4582023  )
       316           C   tau( 316) = (   0.7190900   1.2784721   0.5345281  )
       317           C   tau( 317) = (   0.8437700   1.0580464   0.4581885  )
       318           C   tau( 318) = (   0.8437700   1.1903203   0.5345281  )
       319           C   tau( 319) = (   0.9691500   1.1021553   0.5345281  )
       320           C   tau( 320) = (   0.9690800   1.2344425   0.4581610  )
       321           C   tau( 321) = (   0.0937600   0.0000000   0.6108814  )
       322           C   tau( 322) = (   0.0937900   0.1323004   0.6872484  )
       323           C   tau( 323) = (   0.2190900   0.0881650   0.6108951  )
       324           C   tau( 324) = (   0.2192000   0.2204787   0.6872484  )
       325           C   tau( 325) = (   0.3437600   0.0000132   0.6108814  )
       326           C   tau( 326) = (   0.3437800   0.1323137   0.6872484  )
       327           C   tau( 327) = (   0.4691000   0.0441619   0.6872484  )
       328           C   tau( 328) = (   0.4691300   0.1764094   0.6108951  )
       329           C   tau( 329) = (   0.5937600   0.0000132   0.6108951  )
       330           C   tau( 330) = (   0.5937700   0.1323533   0.6872484  )
       331           C   tau( 331) = (   0.7190800   0.0881650   0.6108814  )
       332           C   tau( 332) = (   0.7191400   0.2204522   0.6872484  )
       333           C   tau( 333) = (   0.8437600   0.0000000   0.6108814  )
       334           C   tau( 334) = (   0.8437600   0.1322740   0.6872484  )
       335           C   tau( 335) = (   0.9691000   0.0441222   0.6872484  )
       336           C   tau( 336) = (   0.9691100   0.1763433   0.6108814  )
       337           C   tau( 337) = (   0.0938100   0.2645744   0.6108951  )
       338           C   tau( 338) = (   0.0937700   0.3967294   0.6872484  )
       339           C   tau( 339) = (   0.2191700   0.3527659   0.6109089  )
       340           C   tau( 340) = (   0.2189700   0.4850002   0.6872484  )
       341           C   tau( 341) = (   0.3438500   0.2646405   0.6109089  )
       342           C   tau( 342) = (   0.3439800   0.3969542   0.6872484  )
       343           C   tau( 343) = (   0.4691800   0.3088156   0.6872484  )
       344           C   tau( 344) = (   0.4694700   0.4408912   0.6103728  )
       345           C   tau( 345) = (   0.5937900   0.2647067   0.6109226  )
       346           C   tau( 346) = (   0.5937600   0.3970336   0.6872484  )
       347           C   tau( 347) = (   0.7190900   0.3527262   0.6109089  )
       348           C   tau( 348) = (   0.7191300   0.4849341   0.6872484  )
       349           C   tau( 349) = (   0.8437700   0.2645612   0.6108814  )
       350           C   tau( 350) = (   0.8438000   0.3967294   0.6872484  )
       351           C   tau( 351) = (   0.9691000   0.3085776   0.6872484  )
       352           C   tau( 352) = (   0.9691500   0.4408251   0.6108814  )
       353           C   tau( 353) = (   0.0936800   0.5289769   0.6108539  )
       354           C   tau( 354) = (   0.0936100   0.6613038   0.6872484  )
       355           C   tau( 355) = (   0.2186600   0.6171419   0.6108539  )
       356           C   tau( 356) = (   0.2186800   0.7495085   0.6872484  )
       357           C   tau( 357) = (   0.3432100   0.5291621   0.6107302  )
       358           C   tau( 358) = (   0.3430100   0.6612906   0.6872484  )
       359           C   tau( 359) = (   0.4660800   0.5669490   0.6872484  )
       360           C   tau( 360) = (   0.4660200   0.7085076   0.6054659  )
       361           C   tau( 361) = (   0.5936300   0.5305508   0.6121047  )
       362           C   tau( 362) = (   0.7199400   0.6174064   0.6112250  )
       363           C   tau( 363) = (   0.7199100   0.7490588   0.6872484  )
       364           C   tau( 364) = (   0.8439300   0.5290430   0.6109364  )
       365           C   tau( 365) = (   0.8446700   0.6613038   0.6872484  )
       366           C   tau( 366) = (   0.9692700   0.5730726   0.6872484  )
       367           C   tau( 367) = (   0.9692900   0.7054524   0.6108264  )
       368           C   tau( 368) = (   0.0937000   0.7936307   0.6108676  )
       369           C   tau( 369) = (   0.0936700   0.9258914   0.6872484  )
       370           C   tau( 370) = (   0.2189100   0.8818486   0.6108951  )
       371           C   tau( 371) = (   0.2190700   1.0140564   0.6872484  )
       372           C   tau( 372) = (   0.3431800   0.7936439   0.6111013  )
       373           C   tau( 373) = (   0.3437300   0.9259311   0.6872484  )
       374           C   tau( 374) = (   0.4688900   0.8379380   0.6872484  )
       375           C   tau( 375) = (   0.4691100   0.9700665   0.6109364  )
       376           C   tau( 376) = (   0.5936300   0.7917393   0.6115824  )
       377           C   tau( 377) = (   0.5937100   0.9255343   0.6872484  )
       378           C   tau( 378) = (   0.7191900   0.8814254   0.6109776  )
       379           C   tau( 379) = (   0.7191000   1.0138448   0.6872484  )
       380           C   tau( 380) = (   0.8439200   0.7935116   0.6108814  )
       381           C   tau( 381) = (   0.8438100   0.9258253   0.6872484  )
       382           C   tau( 382) = (   0.9691100   0.8376206   0.6872484  )
       383           C   tau( 383) = (   0.9690800   0.9698946   0.6108814  )
       384           C   tau( 384) = (   0.0937800   1.0580464   0.6108814  )
       385           C   tau( 385) = (   0.0937700   1.1903336   0.6872484  )
       386           C   tau( 386) = (   0.2191000   1.1462775   0.6108814  )
       387           C   tau( 387) = (   0.2191000   1.2784854   0.6872484  )
       388           C   tau( 388) = (   0.3437900   1.0580860   0.6108814  )
       389           C   tau( 389) = (   0.3437700   1.1903468   0.6872484  )
       390           C   tau( 390) = (   0.4691500   1.1022744   0.6872484  )
       391           C   tau( 391) = (   0.4690900   1.2344954   0.6108814  )
       392           C   tau( 392) = (   0.5937800   1.0579538   0.6109501  )
       393           C   tau( 393) = (   0.5937600   1.1903071   0.6872484  )
       394           C   tau( 394) = (   0.7191000   1.1462246   0.6109089  )
       395           C   tau( 395) = (   0.7191000   1.2784721   0.6872484  )
       396           C   tau( 396) = (   0.8437800   1.0580464   0.6109089  )
       397           C   tau( 397) = (   0.8437700   1.1903203   0.6872484  )
       398           C   tau( 398) = (   0.9691600   1.1021553   0.6872484  )
       399           C   tau( 399) = (   0.9690800   1.2344425   0.6108814  )
       400           C   tau( 400) = (   0.0937600   0.0000000   0.7636017  )
       401           C   tau( 401) = (   0.0937800   0.1322872   0.8399688  )
       402           C   tau( 402) = (   0.2190900   0.0881650   0.7636017  )
       403           C   tau( 403) = (   0.2191900   0.2204787   0.8399413  )
       404           C   tau( 404) = (   0.3437600   0.0000132   0.7636017  )
       405           C   tau( 405) = (   0.3437800   0.1323137   0.8399550  )
       406           C   tau( 406) = (   0.4691000   0.0441619   0.8399688  )
       407           C   tau( 407) = (   0.4691300   0.1764094   0.7636017  )
       408           C   tau( 408) = (   0.5937600   0.0000132   0.7636017  )
       409           C   tau( 409) = (   0.5937700   0.1323533   0.8399413  )
       410           C   tau( 410) = (   0.7190800   0.0881650   0.7636017  )
       411           C   tau( 411) = (   0.7191400   0.2204655   0.8399550  )
       412           C   tau( 412) = (   0.8437600   0.0000000   0.7636017  )
       413           C   tau( 413) = (   0.8437600   0.1322740   0.8399688  )
       414           C   tau( 414) = (   0.9691000   0.0441222   0.8399688  )
       415           C   tau( 415) = (   0.9691100   0.1763433   0.7636017  )
       416           C   tau( 416) = (   0.0938100   0.2645744   0.7636017  )
       417           C   tau( 417) = (   0.0937500   0.3967161   0.8399688  )
       418           C   tau( 418) = (   0.2191700   0.3527659   0.7635880  )
       419           C   tau( 419) = (   0.2189100   0.4849341   0.8400650  )
       420           C   tau( 420) = (   0.3438500   0.2646405   0.7635880  )
       421           C   tau( 421) = (   0.3438500   0.3968219   0.8399413  )
       422           C   tau( 422) = (   0.4691700   0.3085511   0.8400650  )
       423           C   tau( 423) = (   0.4694700   0.4408912   0.7641240  )
       424           C   tau( 424) = (   0.5937900   0.2647067   0.7635742  )
       425           C   tau( 425) = (   0.5938500   0.3972981   0.8396114  )
       426           C   tau( 426) = (   0.7190900   0.3527262   0.7635742  )
       427           C   tau( 427) = (   0.7191200   0.4851589   0.8397764  )
       428           C   tau( 428) = (   0.8437700   0.2645612   0.7636155  )
       429           C   tau( 429) = (   0.8437500   0.3967823   0.8399550  )
       430           C   tau( 430) = (   0.9690800   0.3085908   0.8399688  )
       431           C   tau( 431) = (   0.9691500   0.4408251   0.7636155  )
       432           C   tau( 432) = (   0.0936800   0.5289769   0.7636430  )
       433           C   tau( 433) = (   0.0936900   0.6613038   0.8400238  )
       434           C   tau( 434) = (   0.2186600   0.6171419   0.7636292  )
       435           C   tau( 435) = (   0.2189400   0.7494423   0.8399413  )
       436           C   tau( 436) = (   0.3432100   0.5291621   0.7637667  )
       437           C   tau( 437) = (   0.3430800   0.6610260   0.8399138  )
       438           C   tau( 438) = (   0.4688500   0.5729536   0.8402849  )
       439           C   tau( 439) = (   0.4660200   0.7085076   0.7690310  )
       440           C   tau( 440) = (   0.5936300   0.5305640   0.7623922  )
       441           C   tau( 441) = (   0.5936200   0.6616080   0.8380170  )
       442           C   tau( 442) = (   0.7199400   0.6174064   0.7632581  )
       443           C   tau( 443) = (   0.7191200   0.7494820   0.8400100  )
       444           C   tau( 444) = (   0.8439300   0.5290430   0.7635605  )
       445           C   tau( 445) = (   0.8439300   0.6613435   0.8399276  )
       446           C   tau( 446) = (   0.9691000   0.5731388   0.8399688  )
       447           C   tau( 447) = (   0.9692900   0.7054524   0.7636705  )
       448           C   tau( 448) = (   0.0937000   0.7936307   0.7636292  )
       449           C   tau( 449) = (   0.0937500   0.9258650   0.8399963  )
       450           C   tau( 450) = (   0.2189100   0.8818486   0.7636017  )
       451           C   tau( 451) = (   0.2191200   1.0140035   0.8399825  )
       452           C   tau( 452) = (   0.3431800   0.7936439   0.7633956  )
       453           C   tau( 453) = (   0.3438500   0.9257988   0.8399138  )
       454           C   tau( 454) = (   0.4694300   0.8380306   0.8396939  )
       455           C   tau( 455) = (   0.4691100   0.9700665   0.7635605  )
       456           C   tau( 456) = (   0.5936300   0.7917393   0.7629007  )
       457           C   tau( 457) = (   0.5938500   0.9253095   0.8395427  )
       458           C   tau( 458) = (   0.7191900   0.8814254   0.7635055  )
       459           C   tau( 459) = (   0.7191100   1.0139242   0.8399001  )
       460           C   tau( 460) = (   0.8439200   0.7935116   0.7636155  )
       461           C   tau( 461) = (   0.8437500   0.9258385   0.8399413  )
       462           C   tau( 462) = (   0.9691100   0.8376470   0.8399963  )
       463           C   tau( 463) = (   0.9690800   0.9698946   0.7636155  )
       464           C   tau( 464) = (   0.0937800   1.0580464   0.7636155  )
       465           C   tau( 465) = (   0.0937600   1.1903336   0.8399688  )
       466           C   tau( 466) = (   0.2191000   1.1462775   0.7636155  )
       467           C   tau( 467) = (   0.2191000   1.2784854   0.8399688  )
       468           C   tau( 468) = (   0.3437900   1.0580860   0.7636155  )
       469           C   tau( 469) = (   0.3437800   1.1903336   0.8399688  )
       470           C   tau( 470) = (   0.4691700   1.1022215   0.8399550  )
       471           C   tau( 471) = (   0.4690900   1.2344954   0.7636155  )
       472           C   tau( 472) = (   0.5937800   1.0579538   0.7635468  )
       473           C   tau( 473) = (   0.5937600   1.1902939   0.8399276  )
       474           C   tau( 474) = (   0.7191000   1.1462246   0.7635880  )
       475           C   tau( 475) = (   0.7190900   1.2784721   0.8399550  )
       476           C   tau( 476) = (   0.8437800   1.0580464   0.7635880  )
       477           C   tau( 477) = (   0.8437700   1.1903203   0.8399688  )
       478           C   tau( 478) = (   0.9691500   1.1021553   0.8399688  )
       479           C   tau( 479) = (   0.9690800   1.2344425   0.7636017  )
       480           C   tau( 480) = (   0.0937600   0.0000000   0.9163358  )
       481           C   tau( 481) = (   0.0937800   0.1322872   0.9926891  )
       482           C   tau( 482) = (   0.2190900   0.0881650   0.9163221  )
       483           C   tau( 483) = (   0.2191700   0.2204522   0.9926754  )
       484           C   tau( 484) = (   0.3437700   0.0000132   0.9163221  )
       485           C   tau( 485) = (   0.3437700   0.1322872   0.9926891  )
       486           C   tau( 486) = (   0.4691000   0.0441222   0.9927029  )
       487           C   tau( 487) = (   0.4691200   0.1763168   0.9163496  )
       488           C   tau( 488) = (   0.5937600   0.0000132   0.9163083  )
       489           C   tau( 489) = (   0.5937800   0.1323666   0.9926479  )
       490           C   tau( 490) = (   0.7190800   0.0881650   0.9163221  )
       491           C   tau( 491) = (   0.7191500   0.2204919   0.9926616  )
       492           C   tau( 492) = (   0.8437600   0.0000000   0.9163221  )
       493           C   tau( 493) = (   0.8437600   0.1322872   0.9926891  )
       494           C   tau( 494) = (   0.9690900   0.0441222   0.9926891  )
       495           C   tau( 495) = (   0.9691000   0.1763300   0.9163358  )
       496           C   tau( 496) = (   0.0937900   0.2645612   0.9163221  )
       497           C   tau( 497) = (   0.0937800   0.3967426   0.9926754  )
       498           C   tau( 498) = (   0.2191200   0.3527130   0.9163221  )
       499           C   tau( 499) = (   0.2190700   0.4849473   0.9927304  )
       500           C   tau( 500) = (   0.3438200   0.2645744   0.9163221  )
       501           C   tau( 501) = (   0.3437900   0.3967294   0.9927304  )
       502           C   tau( 502) = (   0.4691100   0.3085643   0.9927441  )
       503           C   tau( 503) = (   0.4691900   0.4407854   0.9165283  )
       504           C   tau( 504) = (   0.5938000   0.2647728   0.9162121  )
       505           C   tau( 505) = (   0.5937900   0.3968352   0.9925929  )
       506           C   tau( 506) = (   0.7191100   0.3528056   0.9162809  )
       507           C   tau( 507) = (   0.7190900   0.4850399   0.9925517  )
       508           C   tau( 508) = (   0.8437700   0.2645744   0.9163221  )
       509           C   tau( 509) = (   0.8437800   0.3967690   0.9926891  )
       510           C   tau( 510) = (   0.9691000   0.3086040   0.9926891  )
       511           C   tau( 511) = (   0.9691200   0.4408516   0.9163221  )
       512           C   tau( 512) = (   0.0936600   0.5290033   0.9163633  )
       513           C   tau( 513) = (   0.0937300   0.6613170   0.9927166  )
       514           C   tau( 514) = (   0.2188900   0.6171155   0.9164320  )
       515           C   tau( 515) = (   0.2191400   0.7494556   0.9926342  )
       516           C   tau( 516) = (   0.3437300   0.5289504   0.9164183  )
       517           C   tau( 517) = (   0.3438200   0.6612906   0.9926067  )
       518           C   tau( 518) = (   0.4691000   0.5730197   0.9928128  )
       519           C   tau( 519) = (   0.4693900   0.7050160   0.9165420  )
       520           C   tau( 520) = (   0.5936900   0.5291885   0.9160060  )
       521           C   tau( 521) = (   0.5938300   0.6612773   0.9918919  )
       522           C   tau( 522) = (   0.7191300   0.6172345   0.9160472  )
       523           C   tau( 523) = (   0.7190700   0.7494688   0.9926479  )
       524           C   tau( 524) = (   0.8438000   0.5290298   0.9162946  )
       525           C   tau( 525) = (   0.8437300   0.6613038   0.9926616  )
       526           C   tau( 526) = (   0.9690600   0.5731520   0.9926891  )
       527           C   tau( 527) = (   0.9691100   0.7054392   0.9163633  )
       528           C   tau( 528) = (   0.0937600   0.7935910   0.9163496  )
       529           C   tau( 529) = (   0.0938100   0.9258385   0.9926754  )
       530           C   tau( 530) = (   0.2192400   0.8816899   0.9162946  )
       531           C   tau( 531) = (   0.2191300   1.0139771   0.9926754  )
       532           C   tau( 532) = (   0.3439300   0.7934587   0.9161297  )
       533           C   tau( 533) = (   0.3438500   0.9257988   0.9926204  )
       534           C   tau( 534) = (   0.4691700   0.8375412   0.9924830  )
       535           C   tau( 535) = (   0.4691700   0.9700136   0.9162946  )
       536           C   tau( 536) = (   0.5937500   0.7934455   0.9160472  )
       537           C   tau( 537) = (   0.5937800   0.9257592   0.9925242  )
       538           C   tau( 538) = (   0.7191300   0.8817163   0.9163083  )
       539           C   tau( 539) = (   0.7190900   1.0139903   0.9926616  )
       540           C   tau( 540) = (   0.8437800   0.7935910   0.9163496  )
       541           C   tau( 541) = (   0.8437700   0.9258650   0.9926754  )
       542           C   tau( 542) = (   0.9691000   0.8376338   0.9927029  )
       543           C   tau( 543) = (   0.9690800   0.9698946   0.9163358  )
       544           C   tau( 544) = (   0.0937900   1.0580464   0.9163358  )
       545           C   tau( 545) = (   0.0937700   1.1903336   0.9926891  )
       546           C   tau( 546) = (   0.2191100   1.1462643   0.9163358  )
       547           C   tau( 547) = (   0.2191000   1.2784854   0.9926891  )
       548           C   tau( 548) = (   0.3438100   1.0580464   0.9163221  )
       549           C   tau( 549) = (   0.3437900   1.1903203   0.9926891  )
       550           C   tau( 550) = (   0.4691900   1.1021950   0.9926754  )
       551           C   tau( 551) = (   0.4690900   1.2344690   0.9163358  )
       552           C   tau( 552) = (   0.5938100   1.0578480   0.9161709  )
       553           C   tau( 553) = (   0.5937700   1.1902674   0.9926342  )
       554           C   tau( 554) = (   0.7191000   1.1462378   0.9162946  )
       555           C   tau( 555) = (   0.7190900   1.2784721   0.9926754  )
       556           C   tau( 556) = (   0.8437700   1.0580464   0.9163083  )
       557           C   tau( 557) = (   0.8437700   1.1903203   0.9926754  )
       558           C   tau( 558) = (   0.9691500   1.1021553   0.9926891  )
       559           C   tau( 559) = (   0.9690800   1.2344425   0.9163221  )
       560           C   tau( 560) = (   0.0937600   0.0000000   1.0690562  )
       561           C   tau( 561) = (   0.0937800   0.1322872   1.1454095  )
       562           C   tau( 562) = (   0.2190900   0.0881650   1.0690562  )
       563           C   tau( 563) = (   0.2191600   0.2204390   1.1454095  )
       564           C   tau( 564) = (   0.3437700   0.0000000   1.0690562  )
       565           C   tau( 565) = (   0.3437600   0.1322608   1.1454232  )
       566           C   tau( 566) = (   0.4691000   0.0441222   1.1454232  )
       567           C   tau( 567) = (   0.4691100   0.1763168   1.0690699  )
       568           C   tau( 568) = (   0.5937600   0.0000000   1.0690149  )
       569           C   tau( 569) = (   0.5937800   0.1323004   1.1453957  )
       570           C   tau( 570) = (   0.7190800   0.0881782   1.0690287  )
       571           C   tau( 571) = (   0.7191600   0.2204655   1.1453957  )
       572           C   tau( 572) = (   0.8437600   0.0000000   1.0690424  )
       573           C   tau( 573) = (   0.8437600   0.1322740   1.1454095  )
       574           C   tau( 574) = (   0.9691000   0.0441222   1.1454095  )
       575           C   tau( 575) = (   0.9691000   0.1763300   1.0690562  )
       576           C   tau( 576) = (   0.0937900   0.2645480   1.0690424  )
       577           C   tau( 577) = (   0.0937900   0.3967426   1.1454095  )
       578           C   tau( 578) = (   0.2191000   0.3526998   1.0690562  )
       579           C   tau( 579) = (   0.2191000   0.4849737   1.1454232  )
       580           C   tau( 580) = (   0.3437900   0.2645480   1.0690562  )
       581           C   tau( 581) = (   0.3437800   0.3967426   1.1454370  )
       582           C   tau( 582) = (   0.4691000   0.3085776   1.1454370  )
       583           C   tau( 583) = (   0.4691600   0.4407986   1.0691524  )
       584           C   tau( 584) = (   0.5937900   0.2646009   1.0690149  )
       585           C   tau( 585) = (   0.5937900   0.3967690   1.1453682  )
       586           C   tau( 586) = (   0.7191000   0.3527527   1.0690149  )
       587           C   tau( 587) = (   0.7191000   0.4849870   1.1453545  )
       588           C   tau( 588) = (   0.8437900   0.2645612   1.0690424  )
       589           C   tau( 589) = (   0.8437900   0.3967558   1.1454095  )
       590           C   tau( 590) = (   0.9691000   0.3085908   1.1454095  )
       591           C   tau( 591) = (   0.9691600   0.4408648   1.0690424  )
       592           C   tau( 592) = (   0.0937600   0.5290430   1.0690562  )
       593           C   tau( 593) = (   0.0937700   0.6613038   1.1454095  )
       594           C   tau( 594) = (   0.2191200   0.6171948   1.0690424  )
       595           C   tau( 595) = (   0.2191100   0.7494688   1.1453820  )
       596           C   tau( 596) = (   0.3437800   0.5290033   1.0690837  )
       597           C   tau( 597) = (   0.3437900   0.6613038   1.1453820  )
       598           C   tau( 598) = (   0.4691000   0.5731123   1.1454507  )
       599           C   tau( 599) = (   0.4691800   0.7053598   1.0691112  )
       600           C   tau( 600) = (   0.5937600   0.5290430   1.0688912  )
       601           C   tau( 601) = (   0.5937800   0.6612773   1.1450933  )
       602           C   tau( 602) = (   0.7191100   0.6171816   1.0689187  )
       603           C   tau( 603) = (   0.7190700   0.7494556   1.1453820  )
       604           C   tau( 604) = (   0.8437700   0.5290166   1.0690287  )
       605           C   tau( 605) = (   0.8437400   0.6612906   1.1453957  )
       606           C   tau( 606) = (   0.9690800   0.5731388   1.1454095  )
       607           C   tau( 607) = (   0.9690700   0.7054260   1.0690562  )
       608           C   tau( 608) = (   0.0938000   0.7935778   1.0690287  )
       609           C   tau( 609) = (   0.0938000   0.9258517   1.1454095  )
       610           C   tau( 610) = (   0.2192000   0.8817296   1.0690149  )
       611           C   tau( 611) = (   0.2191100   1.0140035   1.1454095  )
       612           C   tau( 612) = (   0.3438300   0.7935513   1.0689600  )
       613           C   tau( 613) = (   0.3438100   0.9258385   1.1453820  )
       614           C   tau( 614) = (   0.4691200   0.8376074   1.1453270  )
       615           C   tau( 615) = (   0.4691300   0.9698549   1.0689875  )
       616           C   tau( 616) = (   0.5937700   0.7935116   1.0688637  )
       617           C   tau( 617) = (   0.5937900   0.9258121   1.1453270  )
       618           C   tau( 618) = (   0.7191400   0.8817296   1.0690287  )
       619           C   tau( 619) = (   0.7191000   1.0140035   1.1453957  )
       620           C   tau( 620) = (   0.8437500   0.7935645   1.0690424  )
       621           C   tau( 621) = (   0.8437800   0.9258517   1.1454095  )
       622           C   tau( 622) = (   0.9691100   0.8376206   1.1454095  )
       623           C   tau( 623) = (   0.9691100   0.9698946   1.0690424  )
       624           C   tau( 624) = (   0.0938000   1.0580464   1.0690424  )
       625           C   tau( 625) = (   0.0937600   1.1903336   1.1454095  )
       626           C   tau( 626) = (   0.2191100   1.1462643   1.0690562  )
       627           C   tau( 627) = (   0.2191000   1.2784854   1.1454095  )
       628           C   tau( 628) = (   0.3438100   1.0580199   1.0690287  )
       629           C   tau( 629) = (   0.3437800   1.1903071   1.1454095  )
       630           C   tau( 630) = (   0.4691700   1.1021289   1.1453820  )
       631           C   tau( 631) = (   0.4690900   1.2344558   1.0690562  )
       632           C   tau( 632) = (   0.5937900   1.0579935   1.0689737  )
       633           C   tau( 633) = (   0.5937700   1.1903203   1.1453820  )
       634           C   tau( 634) = (   0.7191000   1.1462643   1.0690424  )
       635           C   tau( 635) = (   0.7191000   1.2784854   1.1454095  )
       636           C   tau( 636) = (   0.8437800   1.0580464   1.0690424  )
       637           C   tau( 637) = (   0.8437700   1.1903203   1.1454095  )
       638           C   tau( 638) = (   0.9691600   1.1021553   1.1454095  )
       639           C   tau( 639) = (   0.9690800   1.2344425   1.0690424  )
       640           C   tau( 640) = (   0.0937600   0.0000000   1.2217765  )
       641           C   tau( 641) = (   0.0937800   0.1322872   1.2981298  )
       642           C   tau( 642) = (   0.2190800   0.0881518   1.2217765  )
       643           C   tau( 643) = (   0.2191600   0.2204390   1.2981436  )
       644           C   tau( 644) = (   0.3437600   0.0000000   1.2217765  )
       645           C   tau( 645) = (   0.3437600   0.1322740   1.2981436  )
       646           C   tau( 646) = (   0.4691000   0.0441090   1.2981298  )
       647           C   tau( 647) = (   0.4691000   0.1763168   1.2217765  )
       648           C   tau( 648) = (   0.5937600   0.0000000   1.2217628  )
       649           C   tau( 649) = (   0.5937800   0.1322872   1.2981298  )
       650           C   tau( 650) = (   0.7190800   0.0881650   1.2217628  )
       651           C   tau( 651) = (   0.7191600   0.2204522   1.2981298  )
       652           C   tau( 652) = (   0.8437600   0.0000000   1.2217765  )
       653           C   tau( 653) = (   0.8437600   0.1322740   1.2981298  )
       654           C   tau( 654) = (   0.9691000   0.0441222   1.2981298  )
       655           C   tau( 655) = (   0.9691000   0.1763300   1.2217765  )
       656           C   tau( 656) = (   0.0937900   0.2645480   1.2217765  )
       657           C   tau( 657) = (   0.0937900   0.3967426   1.2981298  )
       658           C   tau( 658) = (   0.2191000   0.3527130   1.2217765  )
       659           C   tau( 659) = (   0.2191000   0.4849737   1.2981298  )
       660           C   tau( 660) = (   0.3437900   0.2645480   1.2217765  )
       661           C   tau( 661) = (   0.3437900   0.3967426   1.2981436  )
       662           C   tau( 662) = (   0.4691000   0.3085908   1.2981436  )
       663           C   tau( 663) = (   0.4691600   0.4408516   1.2218040  )
       664           C   tau( 664) = (   0.5937900   0.2645612   1.2217628  )
       665           C   tau( 665) = (   0.5937900   0.3967558   1.2981161  )
       666           C   tau( 666) = (   0.7191000   0.3527262   1.2217628  )
       667           C   tau( 667) = (   0.7191000   0.4849870   1.2981161  )
       668           C   tau( 668) = (   0.8437900   0.2645612   1.2217765  )
       669           C   tau( 669) = (   0.8437900   0.3967558   1.2981298  )
       670           C   tau( 670) = (   0.9691000   0.3085908   1.2981298  )
       671           C   tau( 671) = (   0.9691600   0.4408648   1.2217765  )
       672           C   tau( 672) = (   0.0937600   0.5290298   1.2217765  )
       673           C   tau( 673) = (   0.0937600   0.6613038   1.2981298  )
       674           C   tau( 674) = (   0.2191100   0.6171948   1.2217628  )
       675           C   tau( 675) = (   0.2190900   0.7494688   1.2981298  )
       676           C   tau( 676) = (   0.3437800   0.5290166   1.2217765  )
       677           C   tau( 677) = (   0.3437700   0.6613038   1.2981298  )
       678           C   tau( 678) = (   0.4690900   0.5731388   1.2981436  )
       679           C   tau( 679) = (   0.4691300   0.7054127   1.2217765  )
       680           C   tau( 680) = (   0.5937600   0.5290430   1.2217078  )
       681           C   tau( 681) = (   0.5937700   0.6612906   1.2980611  )
       682           C   tau( 682) = (   0.7190900   0.6171816   1.2217215  )
       683           C   tau( 683) = (   0.7190800   0.7494556   1.2981298  )
       684           C   tau( 684) = (   0.8437700   0.5290166   1.2217628  )
       685           C   tau( 685) = (   0.8437500   0.6613038   1.2981298  )
       686           C   tau( 686) = (   0.9690800   0.5731388   1.2981298  )
       687           C   tau( 687) = (   0.9690900   0.7054260   1.2217628  )
       688           C   tau( 688) = (   0.0937800   0.7935910   1.2217628  )
       689           C   tau( 689) = (   0.0937900   0.9258517   1.2981298  )
       690           C   tau( 690) = (   0.2191700   0.8817428   1.2217628  )
       691           C   tau( 691) = (   0.2191100   1.0140168   1.2981298  )
       692           C   tau( 692) = (   0.3437900   0.7935778   1.2217353  )
       693           C   tau( 693) = (   0.3438000   0.9258650   1.2981298  )
       694           C   tau( 694) = (   0.4691100   0.8376206   1.2981161  )
       695           C   tau( 695) = (   0.4691100   0.9698813   1.2217353  )
       696           C   tau( 696) = (   0.5937800   0.7935513   1.2216941  )
       697           C   tau( 697) = (   0.5937900   0.9258385   1.2981161  )
       698           C   tau( 698) = (   0.7191500   0.8817428   1.2217628  )
       699           C   tau( 699) = (   0.7191000   1.0140035   1.2981298  )
       700           C   tau( 700) = (   0.8437600   0.7935645   1.2217628  )
       701           C   tau( 701) = (   0.8437900   0.9258650   1.2981298  )
       702           C   tau( 702) = (   0.9691000   0.8376338   1.2981298  )
       703           C   tau( 703) = (   0.9691000   0.9698946   1.2217765  )
       704           C   tau( 704) = (   0.0937900   1.0580464   1.2217765  )
       705           C   tau( 705) = (   0.0937600   1.1903336   1.2981298  )
       706           C   tau( 706) = (   0.2191000   1.1462775   1.2217765  )
       707           C   tau( 707) = (   0.2191000   1.2784854   1.2981298  )
       708           C   tau( 708) = (   0.3437900   1.0580464   1.2217628  )
       709           C   tau( 709) = (   0.3437800   1.1903203   1.2981298  )
       710           C   tau( 710) = (   0.4691600   1.1021553   1.2981298  )
       711           C   tau( 711) = (   0.4690900   1.2344293   1.2217628  )
       712           C   tau( 712) = (   0.5937900   1.0580331   1.2217490  )
       713           C   tau( 713) = (   0.5937600   1.1903336   1.2981298  )
       714           C   tau( 714) = (   0.7191000   1.1462775   1.2217628  )
       715           C   tau( 715) = (   0.7191000   1.2784854   1.2981298  )
       716           C   tau( 716) = (   0.8437800   1.0580464   1.2217765  )
       717           C   tau( 717) = (   0.8437700   1.1903203   1.2981298  )
       718           C   tau( 718) = (   0.9691600   1.1021553   1.2981298  )
       719           C   tau( 719) = (   0.9690800   1.2344425   1.2217765  )
       720           Si  tau( 720) = (   0.0000400   0.0000132   0.0000000  )
       721           Si  tau( 721) = (   0.0000600   0.1322740   0.0763533  )
       722           Si  tau( 722) = (   0.1250600   0.0881782   0.0000000  )
       723           Si  tau( 723) = (   0.1251100   0.2204522   0.0763670  )
       724           Si  tau( 724) = (   0.2500400   1.3225943   0.0000000  )
       725           Si  tau( 725) = (   0.2500500   0.1322475   0.0763670  )
       726           Si  tau( 726) = (   0.3750600   0.0440957   0.0763670  )
       727           Si  tau( 727) = (   0.3750600   0.1763565   0.0000000  )
       728           Si  tau( 728) = (   0.5000300   0.0000132   0.0000000  )
       729           Si  tau( 729) = (   0.5000500   0.1322608   0.0763533  )
       730           Si  tau( 730) = (   0.6250600   0.0881782   0.0000000  )
       731           Si  tau( 731) = (   0.6251000   0.2204655   0.0763670  )
       732           Si  tau( 732) = (   0.7500400   1.3225943   0.0000000  )
       733           Si  tau( 733) = (   0.7500500   0.1322475   0.0763670  )
       734           Si  tau( 734) = (   0.8750700   0.0440957   0.0763670  )
       735           Si  tau( 735) = (   0.8750700   0.1763565   0.0000000  )
       736           Si  tau( 736) = (   0.0000600   0.2645083   0.0000000  )
       737           Si  tau( 737) = (   0.0000900   0.3967558   0.0763533  )
       738           Si  tau( 738) = (   0.1250900   0.3526998   0.0000000  )
       739           Si  tau( 739) = (   0.1250800   0.4849473   0.0763670  )
       740           Si  tau( 740) = (   0.2500800   0.2645347   0.0000000  )
       741           Si  tau( 741) = (   0.2500600   0.3967955   0.0763670  )
       742           Si  tau( 742) = (   0.3750800   0.3086040   0.0763533  )
       743           Si  tau( 743) = (   0.3750900   0.4408516   0.0000000  )
       744           Si  tau( 744) = (   0.5000500   0.2645083   0.0000000  )
       745           Si  tau( 745) = (   0.5000700   0.3967558   0.0763533  )
       746           Si  tau( 746) = (   0.6250900   0.3526998   0.0000000  )
       747           Si  tau( 747) = (   0.6250600   0.4849473   0.0763945  )
       748           Si  tau( 748) = (   0.7500800   0.2645347   0.0000000  )
       749           Si  tau( 749) = (   0.7500600   0.3967955   0.0763670  )
       750           Si  tau( 750) = (   0.8751000   0.3086040   0.0763533  )
       751           Si  tau( 751) = (   0.8751100   0.4408516   0.0000000  )
       752           Si  tau( 752) = (   0.0000600   0.5290430   0.0000000  )
       753           Si  tau( 753) = (   0.0000500   0.6613170   0.0763670  )
       754           Si  tau( 754) = (   0.1250800   0.6172080   0.0000000  )
       755           Si  tau( 755) = (   0.1250800   0.7494820   0.0763670  )
       756           Si  tau( 756) = (   0.2500600   0.5290298   0.0000000  )
       757           Si  tau( 757) = (   0.2500500   0.6612906   0.0763670  )
       758           Si  tau( 758) = (   0.3750600   0.5731255   0.0763670  )
       759           Si  tau( 759) = (   0.3750700   0.7053995   0.0000000  )
       760           Si  tau( 760) = (   0.5000300   0.5290430   0.0000000  )
       761           Si  tau( 761) = (   0.5000300   0.6613170   0.0763670  )
       762           Si  tau( 762) = (   0.6250600   0.6172080   0.0000000  )
       763           Si  tau( 763) = (   0.6250500   0.7494820   0.0763945  )
       764           Si  tau( 764) = (   0.7500500   0.5290298   0.0000000  )
       765           Si  tau( 765) = (   0.7500300   0.6612906   0.0763808  )
       766           Si  tau( 766) = (   0.8750700   0.5731255   0.0763533  )
       767           Si  tau( 767) = (   0.8750700   0.7053995   0.0000000  )
       768           Si  tau( 768) = (   0.0000700   0.7935778   0.0000000  )
       769           Si  tau( 769) = (   0.0000700   0.9258121   0.0763670  )
       770           Si  tau( 770) = (   0.1251100   0.8817560   0.0000000  )
       771           Si  tau( 771) = (   0.1251000   1.0140035   0.0763670  )
       772           Si  tau( 772) = (   0.2500500   0.7935513   0.0000000  )
       773           Si  tau( 773) = (   0.2500800   0.9258385   0.0763670  )
       774           Si  tau( 774) = (   0.3750700   0.8376603   0.0763945  )
       775           Si  tau( 775) = (   0.3750900   0.9699078   0.0000000  )
       776           Si  tau( 776) = (   0.5000400   0.7935645   0.0000000  )
       777           Si  tau( 777) = (   0.5000500   0.9257988   0.0763808  )
       778           Si  tau( 778) = (   0.6250900   0.8817428   0.0000000  )
       779           Si  tau( 779) = (   0.6250900   1.0139903   0.0763808  )
       780           Si  tau( 780) = (   0.7500400   0.7935513   0.0000000  )
       781           Si  tau( 781) = (   0.7500700   0.9258385   0.0763670  )
       782           Si  tau( 782) = (   0.8750700   0.8376603   0.0763533  )
       783           Si  tau( 783) = (   0.8750900   0.9699078   0.0000000  )
       784           Si  tau( 784) = (   0.0000800   1.0580596   0.0000000  )
       785           Si  tau( 785) = (   0.0000500   1.1903468   0.0763670  )
       786           Si  tau( 786) = (   0.1250700   1.1462378   0.0000000  )
       787           Si  tau( 787) = (   0.1250700   1.2785118   0.0763670  )
       788           Si  tau( 788) = (   0.2500600   1.0580993   0.0000000  )
       789           Si  tau( 789) = (   0.2500600   1.1903336   0.0763670  )
       790           Si  tau( 790) = (   0.3751000   1.1021421   0.0763670  )
       791           Si  tau( 791) = (   0.3750600   1.2344293   0.0000000  )
       792           Si  tau( 792) = (   0.5000700   1.0580596   0.0000000  )
       793           Si  tau( 793) = (   0.5000400   1.1903468   0.0763670  )
       794           Si  tau( 794) = (   0.6250700   1.1462378   0.0000000  )
       795           Si  tau( 795) = (   0.6250600   1.2785118   0.0763670  )
       796           Si  tau( 796) = (   0.7500600   1.0580993   0.0000000  )
       797           Si  tau( 797) = (   0.7500500   1.1903336   0.0763670  )
       798           Si  tau( 798) = (   0.8751000   1.1021553   0.0763670  )
       799           Si  tau( 799) = (   0.8750600   1.2344293   0.0000000  )
       800           Si  tau( 800) = (   0.0000400   0.0000132   0.1527203  )
       801           Si  tau( 801) = (   0.0000600   0.1322740   0.2290874  )
       802           Si  tau( 802) = (   0.1250700   0.0881782   0.1527203  )
       803           Si  tau( 803) = (   0.1251100   0.2204522   0.2290874  )
       804           Si  tau( 804) = (   0.2500400   1.3225943   0.1527203  )
       805           Si  tau( 805) = (   0.2500500   0.1322475   0.2290874  )
       806           Si  tau( 806) = (   0.3750600   0.0440957   0.2290874  )
       807           Si  tau( 807) = (   0.3750600   0.1763565   0.1527203  )
       808           Si  tau( 808) = (   0.5000300   0.0000132   0.1527203  )
       809           Si  tau( 809) = (   0.5000500   0.1322608   0.2290736  )
       810           Si  tau( 810) = (   0.6250600   0.0881782   0.1527341  )
       811           Si  tau( 811) = (   0.6251000   0.2204787   0.2291149  )
       812           Si  tau( 812) = (   0.7500400   1.3225943   0.1527203  )
       813           Si  tau( 813) = (   0.7500500   0.1322608   0.2290874  )
       814           Si  tau( 814) = (   0.8750700   0.0440957   0.2290874  )
       815           Si  tau( 815) = (   0.8750700   0.1763565   0.1527203  )
       816           Si  tau( 816) = (   0.0000700   0.2645083   0.1527203  )
       817           Si  tau( 817) = (   0.0001000   0.3967558   0.2290736  )
       818           Si  tau( 818) = (   0.1251000   0.3526998   0.1527203  )
       819           Si  tau( 819) = (   0.1250800   0.4849473   0.2290874  )
       820           Si  tau( 820) = (   0.2500800   0.2645480   0.1527203  )
       821           Si  tau( 821) = (   0.2500600   0.3967955   0.2290874  )
       822           Si  tau( 822) = (   0.3750800   0.3086040   0.2290874  )
       823           Si  tau( 823) = (   0.3750900   0.4408516   0.1527203  )
       824           Si  tau( 824) = (   0.5000500   0.2645083   0.1527203  )
       825           Si  tau( 825) = (   0.5000500   0.3967426   0.2290462  )
       826           Si  tau( 826) = (   0.6250900   0.3527130   0.1527478  )
       827           Si  tau( 827) = (   0.6250600   0.4849605   0.2291699  )
       828           Si  tau( 828) = (   0.7500800   0.2645480   0.1527203  )
       829           Si  tau( 829) = (   0.7500600   0.3967955   0.2290874  )
       830           Si  tau( 830) = (   0.8751000   0.3086040   0.2290736  )
       831           Si  tau( 831) = (   0.8751100   0.4408383   0.1527203  )
       832           Si  tau( 832) = (   0.0000600   0.5290562   0.1527203  )
       833           Si  tau( 833) = (   0.0000600   0.6613170   0.2290736  )
       834           Si  tau( 834) = (   0.1250800   0.6172080   0.1527341  )
       835           Si  tau( 835) = (   0.1251000   0.7494820   0.2291011  )
       836           Si  tau( 836) = (   0.2500600   0.5290430   0.1527341  )
       837           Si  tau( 837) = (   0.2500700   0.6612906   0.2291149  )
       838           Si  tau( 838) = (   0.3750500   0.5731123   0.2291011  )
       839           Si  tau( 839) = (   0.3750700   0.7053863   0.1527616  )
       840           Si  tau( 840) = (   0.5000200   0.5290430   0.1527203  )
       841           Si  tau( 841) = (   0.5000100   0.6612906   0.2291011  )
       842           Si  tau( 842) = (   0.6250600   0.6171948   0.1528715  )
       843           Si  tau( 843) = (   0.6250400   0.7494688   0.2292111  )
       844           Si  tau( 844) = (   0.7500500   0.5290298   0.1527478  )
       845           Si  tau( 845) = (   0.7500300   0.6612906   0.2291149  )
       846           Si  tau( 846) = (   0.8750700   0.5731255   0.2290736  )
       847           Si  tau( 847) = (   0.8750700   0.7053995   0.1527203  )
       848           Si  tau( 848) = (   0.0000700   0.7935778   0.1527203  )
       849           Si  tau( 849) = (   0.0000800   0.9258121   0.2290874  )
       850           Si  tau( 850) = (   0.1251200   0.8817560   0.1527341  )
       851           Si  tau( 851) = (   0.1251100   1.0139903   0.2290874  )
       852           Si  tau( 852) = (   0.2500600   0.7935513   0.1527478  )
       853           Si  tau( 853) = (   0.2501000   0.9258253   0.2291149  )
       854           Si  tau( 854) = (   0.3750700   0.8376338   0.2291836  )
       855           Si  tau( 855) = (   0.3750900   0.9698946   0.1527616  )
       856           Si  tau( 856) = (   0.5000400   0.7935645   0.1527753  )
       857           Si  tau( 857) = (   0.5000400   0.9257856   0.2291424  )
       858           Si  tau( 858) = (   0.6250900   0.8817428   0.1527753  )
       859           Si  tau( 859) = (   0.6250800   1.0139639   0.2291286  )
       860           Si  tau( 860) = (   0.7500400   0.7935513   0.1527203  )
       861           Si  tau( 861) = (   0.7500700   0.9258517   0.2290874  )
       862           Si  tau( 862) = (   0.8750800   0.8376735   0.2290736  )
       863           Si  tau( 863) = (   0.8751000   0.9699078   0.1527203  )
       864           Si  tau( 864) = (   0.0000800   1.0580596   0.1527203  )
       865           Si  tau( 865) = (   0.0000500   1.1903468   0.2290874  )
       866           Si  tau( 866) = (   0.1250700   1.1462378   0.1527203  )
       867           Si  tau( 867) = (   0.1250700   1.2785118   0.2290874  )
       868           Si  tau( 868) = (   0.2500600   1.0580860   0.1527341  )
       869           Si  tau( 869) = (   0.2500600   1.1903336   0.2290874  )
       870           Si  tau( 870) = (   0.3751000   1.1021289   0.2291011  )
       871           Si  tau( 871) = (   0.3750600   1.2344161   0.1527203  )
       872           Si  tau( 872) = (   0.5000700   1.0580464   0.1527478  )
       873           Si  tau( 873) = (   0.5000400   1.1903336   0.2291011  )
       874           Si  tau( 874) = (   0.6250600   1.1462378   0.1527341  )
       875           Si  tau( 875) = (   0.6250600   1.2785118   0.2291011  )
       876           Si  tau( 876) = (   0.7500600   1.0580993   0.1527203  )
       877           Si  tau( 877) = (   0.7500500   1.1903336   0.2290874  )
       878           Si  tau( 878) = (   0.8751100   1.1021553   0.2290874  )
       879           Si  tau( 879) = (   0.8750600   1.2344293   0.1527203  )
       880           Si  tau( 880) = (   0.0000400   0.0000132   0.3054407  )
       881           Si  tau( 881) = (   0.0000700   0.1322740   0.3818077  )
       882           Si  tau( 882) = (   0.1250700   0.0881782   0.3054407  )
       883           Si  tau( 883) = (   0.1251200   0.2204655   0.3818215  )
       884           Si  tau( 884) = (   0.2500400   1.3225943   0.3054407  )
       885           Si  tau( 885) = (   0.2500500   0.1322740   0.3818077  )
       886           Si  tau( 886) = (   0.3750600   0.0441090   0.3818077  )
       887           Si  tau( 887) = (   0.3750600   0.1763697   0.3054407  )
       888           Si  tau( 888) = (   0.5000300   0.0000132   0.3054407  )
       889           Si  tau( 889) = (   0.5000400   0.1322740   0.3818077  )
       890           Si  tau( 890) = (   0.6250600   0.0882047   0.3054819  )
       891           Si  tau( 891) = (   0.6251000   0.2205713   0.3818627  )
       892           Si  tau( 892) = (   0.7500300   1.3225943   0.3054544  )
       893           Si  tau( 893) = (   0.7500400   0.1322740   0.3818215  )
       894           Si  tau( 894) = (   0.8750700   0.0440957   0.3818077  )
       895           Si  tau( 895) = (   0.8750700   0.1763565   0.3054407  )
       896           Si  tau( 896) = (   0.0000700   0.2645083   0.3054407  )
       897           Si  tau( 897) = (   0.0001000   0.3967558   0.3818077  )
       898           Si  tau( 898) = (   0.1251100   0.3526998   0.3054544  )
       899           Si  tau( 899) = (   0.1250800   0.4849341   0.3818077  )
       900           Si  tau( 900) = (   0.2500800   0.2645480   0.3054544  )
       901           Si  tau( 901) = (   0.2500700   0.3968087   0.3818077  )
       902           Si  tau( 902) = (   0.3750800   0.3086172   0.3818077  )
       903           Si  tau( 903) = (   0.3750800   0.4408383   0.3054407  )
       904           Si  tau( 904) = (   0.5000400   0.2645083   0.3054270  )
       905           Si  tau( 905) = (   0.5000200   0.3967426   0.3817390  )
       906           Si  tau( 906) = (   0.6250800   0.3527394   0.3054957  )
       907           Si  tau( 907) = (   0.6250400   0.4849870   0.3819314  )
       908           Si  tau( 908) = (   0.7500800   0.2645612   0.3054544  )
       909           Si  tau( 909) = (   0.7500700   0.3968219   0.3818215  )
       910           Si  tau( 910) = (   0.8751000   0.3086040   0.3817940  )
       911           Si  tau( 911) = (   0.8751300   0.4408383   0.3054270  )
       912           Si  tau( 912) = (   0.0000800   0.5290562   0.3054407  )
       913           Si  tau( 913) = (   0.0000800   0.6613302   0.3817528  )
       914           Si  tau( 914) = (   0.1251100   0.6172213   0.3054544  )
       915           Si  tau( 915) = (   0.1251500   0.7494820   0.3818352  )
       916           Si  tau( 916) = (   0.2500700   0.5290430   0.3054544  )
       917           Si  tau( 917) = (   0.2501000   0.6612509   0.3818902  )
       918           Si  tau( 918) = (   0.3750200   0.5730991   0.3818490  )
       919           Si  tau( 919) = (   0.3750900   0.7053334   0.3055781  )
       920           Si  tau( 920) = (   0.4999800   0.5290033   0.3054270  )
       921           Si  tau( 921) = (   0.4999400   0.6611847   0.3818627  )
       922           Si  tau( 922) = (   0.6250900   0.6171551   0.3058393  )
       923           Si  tau( 923) = (   0.6250300   0.7494688   0.3820277  )
       924           Si  tau( 924) = (   0.7500700   0.5290298   0.3054819  )
       925           Si  tau( 925) = (   0.7500400   0.6613435   0.3818215  )
       926           Si  tau( 926) = (   0.8751000   0.5731255   0.3817665  )
       927           Si  tau( 927) = (   0.8750700   0.7054127   0.3054132  )
       928           Si  tau( 928) = (   0.0001000   0.7935645   0.3054407  )
       929           Si  tau( 929) = (   0.0001000   0.9258253   0.3818077  )
       930           Si  tau( 930) = (   0.1251500   0.8817560   0.3054682  )
       931           Si  tau( 931) = (   0.1251300   1.0139771   0.3818077  )
       932           Si  tau( 932) = (   0.2501100   0.7935249   0.3055232  )
       933           Si  tau( 933) = (   0.2501400   0.9257856   0.3818765  )
       934           Si  tau( 934) = (   0.3751200   0.8375280   0.3820414  )
       935           Si  tau( 935) = (   0.3751000   0.9698417   0.3055232  )
       936           Si  tau( 936) = (   0.5000000   0.7935116   0.3055919  )
       937           Si  tau( 937) = (   0.5000000   0.9257327   0.3819452  )
       938           Si  tau( 938) = (   0.6250700   0.8817163   0.3055507  )
       939           Si  tau( 939) = (   0.6250700   1.0139242   0.3818902  )
       940           Si  tau( 940) = (   0.7500400   0.7935778   0.3054132  )
       941           Si  tau( 941) = (   0.7500700   0.9258650   0.3817803  )
       942           Si  tau( 942) = (   0.8751100   0.8376999   0.3817390  )
       943           Si  tau( 943) = (   0.8751000   0.9699210   0.3054407  )
       944           Si  tau( 944) = (   0.0000900   1.0580596   0.3054407  )
       945           Si  tau( 945) = (   0.0000600   1.1903468   0.3818077  )
       946           Si  tau( 946) = (   0.1250800   1.1462378   0.3054407  )
       947           Si  tau( 947) = (   0.1250700   1.2785118   0.3818077  )
       948           Si  tau( 948) = (   0.2500800   1.0580728   0.3054682  )
       949           Si  tau( 949) = (   0.2500600   1.1903203   0.3818077  )
       950           Si  tau( 950) = (   0.3751100   1.1021289   0.3818352  )
       951           Si  tau( 951) = (   0.3750600   1.2344161   0.3054544  )
       952           Si  tau( 952) = (   0.5000600   1.0580199   0.3054819  )
       953           Si  tau( 953) = (   0.5000400   1.1903600   0.3818077  )
       954           Si  tau( 954) = (   0.6250600   1.1462114   0.3054819  )
       955           Si  tau( 955) = (   0.6250600   1.2784854   0.3818352  )
       956           Si  tau( 956) = (   0.7500500   1.0580993   0.3054407  )
       957           Si  tau( 957) = (   0.7500500   1.1903203   0.3818215  )
       958           Si  tau( 958) = (   0.8751100   1.1021553   0.3818077  )
       959           Si  tau( 959) = (   0.8750600   1.2344293   0.3054407  )
       960           Si  tau( 960) = (   0.0000500   0.0000132   0.4581610  )
       961           Si  tau( 961) = (   0.0000700   0.1322740   0.5345281  )
       962           Si  tau( 962) = (   0.1250700   0.0881782   0.4581748  )
       963           Si  tau( 963) = (   0.1251400   0.2204787   0.5345418  )
       964           Si  tau( 964) = (   0.2500400   1.3225943   0.4581748  )
[...]
     1.0000   1.0000   1.0000   1.0000   1.0000   1.0000   1.0000   1.0000
     1.0000   1.0000   1.0000   1.0000   1.0000   1.0000   1.0000   1.0000
     1.0000   1.0000   1.0000   1.0000   1.0000   1.0000   1.0000   1.0000
     1.0000   1.0000   1.0000   1.0000   1.0000   1.0000   1.0000   1.0000
     1.0000   1.0000   1.0000   1.0000   1.0000   1.0000   1.0000   1.0000
     1.0000   1.0000   1.0000   1.0000   1.0000   1.0000   1.0000   1.0000
     1.0000   1.0000   1.0000   1.0000   1.0000   1.0000   1.0000   1.0000
     1.0000   1.0000   1.0000   1.0000   1.0000   1.0000   1.0000   1.0000
     1.0000   1.0000   1.0000   1.0000   1.0000   1.0000   1.0000   1.0000
     1.0000   1.0000   1.0000   1.0000   1.0000   1.0000   1.0000   1.0000
     1.0000   1.0000   1.0000   1.0000   1.0000   1.0000   1.0000   1.0000
     1.0000   1.0000   1.0000   1.0000   1.0000   1.0000   1.0000   1.0000
     1.0000   1.0000   1.0000   1.0000   1.0000   1.0000   1.0000   1.0000
     1.0000   1.0000   1.0000   1.0000   1.0000   1.0000   1.0000   1.0000
     1.0000   1.0000   1.0000   1.0000   1.0000   1.0000   1.0000   1.0000
     1.0000   1.0000   1.0000   1.0000   1.0000   1.0000   1.0000   1.0000
     1.0000   1.0000   1.0000   1.0000   1.0000   1.0000   1.0000   1.0000
     1.0000   1.0000   1.0000   1.0000   1.0000   1.0000   1.0000   1.0000
     1.0000   1.0000   1.0000   1.0000   1.0000   1.0000   1.0000   1.0000
     1.0000   1.0000   1.0000   1.0000   1.0000   1.0000   1.0000   1.0000
     1.0000   1.0000   1.0000   1.0000   1.0000   1.0000   1.0000   1.0000
     1.0000   1.0000   1.0000   1.0000   1.0000   1.0000   1.0000   1.0000
     1.0000   1.0000   1.0000   1.0000   1.0000   1.0000   1.0000   1.0000
     1.0000   1.0000   1.0000   1.0000   1.0000   1.0000   1.0000   1.0000
     1.0000   1.0000   1.0000   1.0000   1.0000   1.0000   1.0000   1.0000
     1.0000   1.0000   1.0000   1.0000   1.0000   1.0000   1.0000   1.0000
     1.0000   1.0000   1.0000   1.0000   1.0000   1.0000   1.0000   1.0000
     1.0000   1.0000   1.0000   1.0000   1.0000   1.0000   1.0000   1.0000
     1.0000   1.0000   1.0000   1.0000   1.0000   1.0000   1.0000   1.0000
     1.0000   1.0000   1.0000   1.0000   1.0000   1.0000   1.0000   1.0000
     1.0000   1.0000   1.0000   1.0000   1.0000   1.0000   1.0000   1.0000
     1.0000   1.0000   1.0000   1.0000   1.0000   1.0000   1.0000   1.0000
     1.0000   1.0000   1.0000   1.0000   1.0000   1.0000   1.0000   1.0000
     1.0000   1.0000   1.0000   1.0000   1.0000   1.0000   1.0000   1.0000
     1.0000   1.0000   1.0000   1.0000   1.0000   1.0000   1.0000   1.0000
     1.0000   1.0000   1.0000   1.0000   1.0000   1.0000   1.0000   1.0000
     1.0000   1.0000   1.0000   1.0000   1.0000   1.0000   1.0000   1.0000
     1.0000   1.0000   1.0000   1.0000   1.0000   1.0000   1.0000   1.0000
     1.0000   1.0000   1.0000   1.0000   1.0000   1.0000   1.0000   1.0000
     1.0000   1.0000   1.0000   1.0000   1.0000   1.0000   1.0000   1.0000
     1.0000   1.0000   1.0000   1.0000   1.0000   1.0000   1.0000   1.0000
     1.0000   1.0000   1.0000   1.0000   1.0000   1.0000   1.0000   1.0000
     1.0000   1.0000   1.0000   1.0000   1.0000   1.0000   1.0000   1.0000
     1.0000   1.0000   1.0000   1.0000   1.0000   1.0000   1.0000   1.0000
     1.0000   1.0000   1.0000   1.0000   1.0000   1.0000   1.0000   1.0000
     1.0000   1.0000   1.0000   1.0000   1.0000   1.0000   1.0000   1.0000
     1.0000   1.0000   1.0000   1.0000   1.0000   1.0000   1.0000   1.0000
     1.0000   1.0000   1.0000   1.0000   1.0000   1.0000   1.0000   1.0000
     1.0000   1.0000   1.0000   1.0000   1.0000   1.0000   1.0000   1.0000
     1.0000   1.0000   1.0000   1.0000   1.0000   1.0000   1.0000   1.0000
     1.0000   1.0000   1.0000   1.0000   1.0000   1.0000   1.0000   1.0000
     1.0000   1.0000   1.0000   1.0000   1.0000   1.0000   1.0000   1.0000
     1.0000   1.0000   1.0000   1.0000   1.0000   1.0000   1.0000   1.0000
     1.0000   1.0000   1.0000   1.0000   1.0000   1.0000   1.0000   1.0000
     1.0000   1.0000   1.0000   1.0000   1.0000   1.0000   1.0000   1.0000
     1.0000   1.0000   1.0000   1.0000   1.0000   1.0000   1.0000   1.0000
     1.0000   1.0000   1.0000   1.0000   1.0000   1.0000   1.0000   1.0000
     1.0000   1.0000   1.0000   1.0000   1.0000   1.0000   1.0000   1.0000
     1.0000   1.0000   1.0000   1.0000   1.0000   1.0000   1.0000   1.0000
     1.0000   1.0000   1.0000   1.0000   1.0000   1.0000   1.0000   1.0000
     1.0000   1.0000   1.0000   1.0000   1.0000   1.0000   1.0000   1.0000
     1.0000   1.0000   1.0000   1.0000   1.0000   1.0000   1.0000   1.0000
     1.0000   1.0000   1.0000   1.0000   1.0000   1.0000   1.0000   1.0000
     1.0000   1.0000   1.0000   1.0000   1.0000   1.0000   1.0000   1.0000
     1.0000   1.0000   1.0000   1.0000   1.0000   1.0000   1.0000   1.0000
     1.0000   1.0000   1.0000   1.0000   1.0000   1.0000   1.0000   1.0000
     1.0000   1.0000   1.0000   1.0000   1.0000   1.0000   1.0000   1.0000
     1.0000   1.0000   1.0000   1.0000   1.0000   1.0000   1.0000   1.0000
     1.0000   1.0000   1.0000   1.0000   1.0000   1.0000   1.0000   1.0000
     1.0000   1.0000   1.0000   1.0000   1.0000   1.0000   1.0000   1.0000
     1.0000   1.0000   1.0000   1.0000   1.0000   1.0000   1.0000   1.0000
     1.0000   1.0000   1.0000   1.0000   1.0000   1.0000   1.0000   1.0000
     1.0000   1.0000   1.0000   1.0000   1.0000   1.0000   1.0000   1.0000
     1.0000   1.0000   1.0000   1.0000   1.0000   1.0000   1.0000   1.0000
     1.0000   1.0000   1.0000   1.0000   1.0000   1.0000   1.0000   1.0000
     1.0000   1.0000   1.0000   1.0000   1.0000   1.0000   1.0000   1.0000
     1.0000   1.0000   1.0000   1.0000   1.0000   1.0000   1.0000   1.0000
     1.0000   1.0000   1.0000   1.0000   1.0000   1.0000   1.0000   1.0000
     1.0000   1.0000   1.0000   1.0000   1.0000   1.0000   1.0000   1.0000
     1.0000   1.0000   1.0000   1.0000   1.0000   1.0000   1.0000   1.0000
     1.0000   1.0000   1.0000   1.0000   1.0000   1.0000   1.0000   1.0000
     1.0000   1.0000   1.0000   1.0000   1.0000   1.0000   1.0000   1.0000
     1.0000   1.0000   1.0000   1.0000   1.0000   1.0000   1.0000   1.0000
     1.0000   1.0000   1.0000   1.0000   1.0000   1.0000   1.0000   1.0000
     1.0000   1.0000   1.0000   1.0000   1.0000   1.0000   1.0000   1.0000
     1.0000   1.0000   1.0000   1.0000   1.0000   1.0000   1.0000   1.0000
     1.0000   1.0000   1.0000   1.0000   1.0000   1.0000   1.0000   1.0000
     1.0000   1.0000   1.0000   1.0000   1.0000   1.0000   1.0000   1.0000
     1.0000   1.0000   1.0000   1.0000   1.0000   1.0000   1.0000   1.0000
     1.0000   1.0000   1.0000   1.0000   1.0000   1.0000   1.0000   1.0000
     1.0000   1.0000   1.0000   1.0000   1.0000   1.0000   1.0000   1.0000
     1.0000   1.0000   1.0000   1.0000   1.0000   1.0000   1.0000   1.0000
     1.0000   1.0000   1.0000   1.0000   1.0000   1.0000   1.0000   1.0000
     1.0000   1.0000   1.0000   1.0000   1.0000   1.0000   1.0000   1.0000
     1.0000   1.0000   1.0000   1.0000   1.0000   1.0000   1.0000   1.0000
     1.0000   1.0000   1.0000   1.0000   1.0000   1.0000   1.0000   1.0000
     1.0000   1.0000   1.0000   1.0000   1.0000   1.0000   1.0000   1.0000
     1.0000   1.0000   1.0000   1.0000   1.0000   1.0000   1.0000   1.0000
     1.0000   1.0000   1.0000   1.0000   1.0000   1.0000   1.0000   1.0000
     1.0000   1.0000   1.0000   1.0000   1.0000   1.0000   1.0000   1.0000
     1.0000   1.0000   1.0000   1.0000   1.0000   1.0000   1.0000   1.0000
     1.0000   1.0000   1.0000   1.0000   1.0000   1.0000   1.0000   1.0000
     1.0000   1.0000   1.0000   1.0000   1.0000   1.0000   1.0000   1.0000
     1.0000   1.0000   1.0000   1.0000   1.0000   1.0000   1.0000   1.0000
     1.0000   1.0000   1.0000   1.0000   1.0000   1.0000   1.0000   1.0000
     1.0000   1.0000   1.0000   1.0000   1.0000   1.0000   1.0000   1.0000
     1.0000   1.0000   1.0000   1.0000   1.0000   1.0000   1.0000   1.0000
     1.0000   1.0000   1.0000   1.0000   1.0000   1.0000   1.0000   1.0000
     1.0000   1.0000   1.0000   1.0000   1.0000   1.0000   1.0000   1.0000
     1.0000   1.0000   1.0000   1.0000   1.0000   1.0000   1.0000   1.0000
     1.0000   1.0000   1.0000   1.0000   1.0000   1.0000   1.0000   1.0000
     1.0000   1.0000   1.0000   1.0000   1.0000   1.0000   1.0000   1.0000
     1.0000   1.0000   1.0000   1.0000   1.0000   1.0000   1.0000   1.0000
     1.0000   1.0000   1.0000   1.0000   1.0000   1.0000   1.0000   1.0000
     1.0000   1.0000   1.0000   1.0000   1.0000   1.0000   1.0000   1.0000
     1.0000   1.0000   1.0000   1.0000   1.0000   1.0000   1.0000   1.0000
     1.0000   1.0000   1.0000   1.0000   1.0000   1.0000   1.0000   1.0000
     1.0000   1.0000   1.0000   1.0000   1.0000   1.0000   1.0000   1.0000
     1.0000   1.0000   1.0000   1.0000   1.0000   1.0000   1.0000   1.0000
     1.0000   1.0000   1.0000   1.0000   1.0000   1.0000   1.0000   1.0000
     1.0000   1.0000   1.0000   1.0000   1.0000   1.0000   1.0000   1.0000
     1.0000   1.0000   1.0000   1.0000   1.0000   1.0000   1.0000   1.0000
     1.0000   1.0000   1.0000   1.0000   1.0000   1.0000   1.0000   1.0000
     1.0000   1.0000   1.0000   1.0000   1.0000   1.0000   1.0000   1.0000
     1.0000   1.0000   1.0000   1.0000   1.0000   1.0000   1.0000   1.0000
     1.0000   1.0000   1.0000   1.0000   1.0000   1.0000   1.0000   1.0000
     1.0000   1.0000   1.0000   1.0000   1.0000   1.0000   1.0000   1.0000
     1.0000   1.0000   1.0000   1.0000   1.0000   1.0000   1.0000   1.0000
     1.0000   1.0000   1.0000   1.0000   1.0000   1.0000   1.0000   1.0000
     1.0000   1.0000   1.0000   1.0000   1.0000   1.0000   1.0000   1.0000
     1.0000   1.0000   1.0000   1.0000   1.0000   1.0000   1.0000   1.0000
     1.0000   1.0000   1.0000   1.0000   1.0000   1.0000   1.0000   1.0000
     1.0000   1.0000   1.0000   1.0000   1.0000   1.0000   1.0000   1.0000
     1.0000   1.0000   1.0000   1.0000   1.0000   1.0000   1.0000   1.0000
     1.0000   1.0000   1.0000   1.0000   1.0000   1.0000   1.0000   1.0000
     1.0000   1.0000   1.0000   1.0000   1.0000   1.0000   1.0000   1.0000
     1.0000   1.0000   1.0000   1.0000   1.0000   1.0000   1.0000   1.0000
     1.0000   1.0000   1.0000   1.0000   1.0000   1.0000   1.0000   1.0000
     1.0000   1.0000   1.0000   1.0000   1.0000   1.0000   1.0000   1.0000
     1.0000   1.0000   1.0000   1.0000   1.0000   1.0000   1.0000   1.0000
     1.0000   1.0000   1.0000   1.0000   1.0000   1.0000   1.0000   1.0000
     1.0000   1.0000   1.0000   1.0000   1.0000   1.0000   1.0000   1.0000
     1.0000   1.0000   1.0000   1.0000   1.0000   1.0000   1.0000   1.0000
     1.0000   1.0000   1.0000   1.0000   1.0000   1.0000   1.0000   1.0000
     1.0000   1.0000   1.0000   1.0000   1.0000   1.0000   1.0000   1.0000
     1.0000   1.0000   1.0000   1.0000   1.0000   1.0000   1.0000   1.0000
     1.0000   1.0000   1.0000   1.0000   1.0000   1.0000   1.0000   1.0000
     1.0000   1.0000   1.0000   1.0000   1.0000   1.0000   1.0000   1.0000
     1.0000   1.0000   1.0000   1.0000   1.0000   1.0000   1.0000   1.0000
     1.0000   1.0000   1.0000   1.0000   1.0000   1.0000   1.0000   1.0000
     1.0000   1.0000   1.0000   1.0000   1.0000   1.0000   1.0000   1.0000
     1.0000   1.0000   1.0000   1.0000   1.0000   1.0000   1.0000   1.0000
     1.0000   1.0000   1.0000   1.0000   1.0000   1.0000   1.0000   1.0000
     1.0000   1.0000   1.0000   1.0000   1.0000   1.0000   1.0000   1.0000
     1.0000   1.0000   1.0000   1.0000   1.0000   1.0000   1.0000   1.0000
     1.0000   1.0000   1.0000   1.0000   1.0000   1.0000   1.0000   1.0000
     1.0000   1.0000   1.0000   1.0000   1.0000   1.0000   1.0000   1.0000
     1.0000   1.0000   1.0000   1.0000   1.0000   1.0000   1.0000   1.0000
     1.0000   1.0000   1.0000   1.0000   1.0000   1.0000   1.0000   1.0000
     1.0000   1.0000   1.0000   1.0000   1.0000   1.0000   1.0000   1.0000
     1.0000   1.0000   1.0000   1.0000   1.0000   1.0000   1.0000   1.0000
     1.0000   1.0000   1.0000   1.0000   1.0000   1.0000   1.0000   1.0000
     1.0000   1.0000   1.0000   1.0000   1.0000   1.0000   1.0000   1.0000
     1.0000   1.0000   1.0000   1.0000   1.0000   1.0000   1.0000   1.0000
     1.0000   1.0000   1.0000   1.0000   1.0000   1.0000   1.0000   1.0000
     1.0000   1.0000   1.0000   1.0000   1.0000   1.0000   1.0000   1.0000
     1.0000   1.0000   1.0000   1.0000   1.0000   1.0000   1.0000   1.0000
     1.0000   1.0000   1.0000   1.0000   1.0000   1.0000   1.0000   1.0000
     1.0000   1.0000   1.0000   1.0000   1.0000   1.0000   1.0000   1.0000
     1.0000   1.0000   1.0000   1.0000   1.0000   1.0000   1.0000   1.0000
     1.0000   1.0000   1.0000   1.0000   1.0000   1.0000   1.0000   1.0000
     1.0000   1.0000   1.0000   1.0000   1.0000   1.0000   1.0000   1.0000
     1.0000   1.0000   1.0000   1.0000   1.0000   1.0000   1.0000   1.0000
     1.0000   1.0000   1.0000   1.0000   1.0000   1.0000   1.0000   1.0000
     1.0000   1.0000   1.0000   1.0000   1.0000   1.0000   1.0000   1.0000
     1.0000   1.0000   1.0000   1.0000   1.0000   1.0000   1.0000   1.0000
     1.0000   1.0000   1.0000   1.0000   1.0000   1.0000   1.0000   1.0000
     1.0000   1.0000   1.0000   1.0000   1.0000   1.0000   1.0000   1.0000
     1.0000   1.0000   1.0000   1.0000   1.0000   1.0000   1.0000   1.0000
     1.0000   1.0000   1.0000   1.0000   1.0000   1.0000   1.0000   1.0000
     1.0000   1.0000   1.0000   1.0000   1.0000   1.0000   1.0000   1.0000
     1.0000   1.0000   1.0000   1.0000   1.0000   1.0000   1.0000   1.0000
     1.0000   1.0000   1.0000   1.0000   1.0000   1.0000   1.0000   1.0000
     1.0000   1.0000   1.0000   1.0000   1.0000   1.0000   1.0000   1.0000
     1.0000   1.0000   1.0000   0.0000   0.0000

     highest occupied, lowest unoccupied level (ev):     9.6831   10.6710

!    total energy              =  -13886.72155875 Ry
     Harris-Foulkes estimate   =  -13886.72155876 Ry
     estimated scf accuracy    <          7.1E-09 Ry

     The total energy is the sum of the following terms:

     one-electron contribution =    3676.60381829 Ry
     hartree contribution      =    1732.61685955 Ry
     xc contribution           =   -4367.14073595 Ry
     ewald contribution        =  -14928.80150065 Ry

     total magnetization       =     2.00 Bohr mag/cell
     absolute magnetization    =     2.21 Bohr mag/cell

     convergence has been achieved in  21 iterations


     Computing stress (Cartesian axis) and pressure

          total   stress  (Ry/bohr**3)                   (kbar)     P=  -19.22
  -0.00012447  -0.00000003  -0.00000000        -18.31     -0.01     -0.00
  -0.00000003  -0.00013399  -0.00000001         -0.01    -19.71     -0.00
  -0.00000000  -0.00000001  -0.00013355         -0.00     -0.00    -19.65

     kinetic stress (kbar)   7817.78     -0.00      0.00
                               -0.00   7820.95      0.00
                                0.00      0.00   7820.97

     local   stress (kbar)  -3667.47      0.05      0.01
                                0.05  -3519.80      0.03
                                0.01      0.03  -3519.23

     nonloc. stress (kbar)   3992.00     -0.00     -0.00
                               -0.00   4006.27     -0.00
                               -0.00     -0.00   4006.25

     hartree stress (kbar)    870.21     -0.01     -0.00
                               -0.01    811.90     -0.00
                               -0.00     -0.00    811.72

     exc-cor stress (kbar)  -1939.86     -0.00     -0.00
                               -0.00  -1940.86     -0.00
                               -0.00     -0.00  -1940.83

     corecor stress (kbar)      0.00      0.00      0.00
                                0.00      0.00      0.00
                                0.00      0.00      0.00

     ewald   stress (kbar)  -7090.97     -0.04     -0.01
                               -0.04  -7198.16     -0.03
                               -0.01     -0.03  -7198.54

     hubbard stress (kbar)      0.00      0.00      0.00
                                0.00      0.00      0.00
                                0.00      0.00      0.00

     london  stress (kbar)      0.00      0.00      0.00
                                0.00      0.00      0.00
                                0.00      0.00      0.00

     DFT-D3  stress (kbar)      0.00      0.00      0.00
                                0.00      0.00      0.00
                                0.00      0.00      0.00

     XDM     stress (kbar)      0.00      0.00      0.00
                                0.00      0.00      0.00
                                0.00      0.00      0.00

     dft-nl  stress (kbar)      0.00      0.00      0.00
                                0.00      0.00      0.00
                                0.00      0.00      0.00

     TS-vdW  stress (kbar)      0.00      0.00      0.00
                                0.00      0.00      0.00
                                0.00      0.00      0.00



     Writing output data file pwscf.save
 
     init_run     :    335.93s CPU    338.71s WALL (       1 calls)
     electrons    :   9385.12s CPU   9413.67s WALL (       1 calls)
     stress       :    298.47s CPU    299.16s WALL (       1 calls)

     Called by init_run:
     wfcinit      :    332.10s CPU    334.64s WALL (       1 calls)
     wfcinit:atom :      0.18s CPU      0.33s WALL (       1 calls)
     wfcinit:wfcr :    331.14s CPU    333.11s WALL (       1 calls)
     potinit      :      0.49s CPU      0.62s WALL (       1 calls)

     Called by electrons:
     c_bands      :   9201.71s CPU   9229.44s WALL (      21 calls)
     sum_band     :    175.75s CPU    176.38s WALL (      21 calls)
     v_of_rho     :      4.77s CPU      4.89s WALL (      22 calls)
     v_h          :      0.23s CPU      0.23s WALL (      22 calls)
     v_xc         :      4.54s CPU      4.66s WALL (      22 calls)
     mix_rho      :      0.85s CPU      0.85s WALL (      21 calls)

     Called by c_bands:
     init_us_2    :      2.78s CPU      2.87s WALL (      43 calls)
     cegterg      :   9094.98s CPU   9120.57s WALL (      21 calls)

     Called by sum_band:

     Called by *egterg:
     h_psi        :   1953.56s CPU   1961.89s WALL (     106 calls)
     g_psi        :      1.74s CPU      1.74s WALL (      84 calls)
     cdiaghg      :   4957.66s CPU   4964.33s WALL (     105 calls)
     cegterg:over :   1039.13s CPU   1039.84s WALL (      84 calls)
     cegterg:upda :    765.29s CPU    765.70s WALL (      84 calls)
     cegterg:last :    408.73s CPU    408.96s WALL (      21 calls)
     cdiaghg:chol :    277.65s CPU    277.85s WALL (     105 calls)
     cdiaghg:inve :    251.13s CPU    251.25s WALL (     105 calls)
     cdiaghg:para :    550.04s CPU    553.81s WALL (     210 calls)

     Called by h_psi:
     h_psi:pot    :   1950.62s CPU   1958.96s WALL (     106 calls)
     h_psi:calbec :    532.73s CPU    533.07s WALL (     106 calls)
     vloc_psi     :    881.49s CPU    884.62s WALL (     106 calls)
     add_vuspsi   :    536.40s CPU    541.26s WALL (     106 calls)

     General routines
     calbec       :    541.61s CPU    541.96s WALL (     107 calls)
     fft          :      4.13s CPU      4.27s WALL (     427 calls)
     ffts         :      0.39s CPU      0.39s WALL (      42 calls)
     fftw         :    956.31s CPU    960.76s WALL (  400971 calls)
 
     Parallel routines
     fft_scatt_xy :     51.32s CPU     50.95s WALL (  401440 calls)
     fft_scatt_yz :    580.84s CPU    581.71s WALL (  401440 calls)
 
     PWSCF        :     2h47m CPU        2h50m WALL

 
   This run was terminated on:   8: 5: 5  19Jun2018            

=------------------------------------------------------------------------------=
   JOB DONE.
=------------------------------------------------------------------------------=
